LAMMPS CONFIG FILE

  2700 atoms
  0 bonds
  0 angles

  1 atom types
  0 bond types
  0 angle types

  -50  50 xlo xhi
  -50  50 ylo yhi
  -50  50 zlo zhi

Masses

  1 1.0

Atoms

  1 0 1 9.99487 -21.28 -4.48 40.32
  2 0 1 -0.00537 -20.547 -5.077 39.72
  3 0 1 0.0 -19.814 -5.674 39.12
  4 0 1 0.0 -19.081 -6.271 38.52
  5 0 1 -0.00537 -18.348 -6.868 37.92
  6 0 1 0.0 -17.615 -7.465 37.32
  7 0 1 0.0 -16.882 -8.062 36.72
  8 0 1 -0.00537 -16.149 -8.659 36.12
  9 0 1 0.0 -15.416 -9.256 35.52
  10 0 1 0.0 -14.683 -9.853 34.92
  11 0 1 -0.00537 -13.95 -10.45 34.32
  12 0 1 0.0 -13.217 -11.047 33.72
  13 0 1 -9.99475 -12.484 -11.644 33.12
  14 0 1 9.99355 -11.751 -12.241 32.52
  15 0 1 0.0 -11.018 -12.838 31.92
  16 0 1 0.0 -10.285 -13.435 31.32
  17 0 1 -0.00537 -9.552 -14.032 30.72
  18 0 1 0.0 -8.819 -14.629 30.12
  19 0 1 0.0 -8.086 -15.226 29.52
  20 0 1 -0.00537 -7.353 -15.823 28.92
  21 0 1 0.0 -6.62 -16.42 28.32
  22 0 1 0.0 -5.887 -17.017 27.72
  23 0 1 -0.00537 -5.154 -17.614 27.12
  24 0 1 0.0 -4.421 -18.211 26.52
  25 0 1 0.0 -3.688 -18.808 25.92
  26 0 1 -0.00537 -2.955 -19.405 25.32
  27 0 1 0.0 -2.222 -20.002 24.72
  28 0 1 0.0 -1.489 -20.599 24.12
  29 0 1 -0.00537 -0.756 -21.196 23.52
  30 0 1 -9.9999 -0.023 -21.793 22.92
  31 1 1 9.99487 10.08 -24.64 -35.84
  32 1 1 -0.00537 10.581 -25.639 -35.761
  33 1 1 0.0 11.082 -26.638 -35.682
  34 1 1 0.0 11.583 -27.637 -35.603
  35 1 1 -0.00537 12.084 -28.636 -35.524
  36 1 1 0.0 12.585 -29.635 -35.445
  37 1 1 0.0 13.086 -30.634 -35.366
  38 1 1 -0.00537 13.587 -31.633 -35.287
  39 1 1 0.0 14.088 -32.632 -35.208
  40 1 1 0.0 14.589 -33.631 -35.129
  41 1 1 -0.00537 15.09 -34.63 -35.05
  42 1 1 0.0 15.591 -35.629 -34.971
  43 1 1 -9.99475 16.092 -36.628 -34.892
  44 1 1 9.99355 16.593 -37.627 -34.813
  45 1 1 0.0 17.094 -38.626 -34.734
  46 1 1 0.0 17.595 -39.625 -34.655
  47 1 1 -0.00537 18.096 -40.624 -34.576
  48 1 1 0.0 18.597 -41.623 -34.497
  49 1 1 0.0 19.098 -42.622 -34.418
  50 1 1 -0.00537 19.599 -43.621 -34.339
  51 1 1 0.0 20.1 -44.62 -34.26
  52 1 1 0.0 20.601 -45.619 -34.181
  53 1 1 -0.00537 21.102 -46.618 -34.102
  54 1 1 0.0 21.603 -47.617 -34.023
  55 1 1 0.0 22.104 -48.616 -33.944
  56 1 1 -0.00537 22.605 -49.615 -33.865
  57 1 1 0.0 23.106 -50.614 -33.786
  58 1 1 0.0 23.607 -51.613 -33.707
  59 1 1 -0.00537 24.108 -52.612 -33.628
  60 1 1 -9.9999 24.609 -53.611 -33.549
  61 2 1 9.99487 -14.56 0.0 -21.28
  62 2 1 -0.00537 -15.489 0.508 -21.645
  63 2 1 0.0 -16.418 1.016 -22.01
  64 2 1 0.0 -17.347 1.524 -22.375
  65 2 1 -0.00537 -18.276 2.032 -22.74
  66 2 1 0.0 -19.205 2.54 -23.105
  67 2 1 0.0 -20.134 3.048 -23.47
  68 2 1 -0.00537 -21.063 3.556 -23.835
  69 2 1 0.0 -21.992 4.064 -24.2
  70 2 1 0.0 -22.921 4.572 -24.565
  71 2 1 -0.00537 -23.85 5.08 -24.93
  72 2 1 0.0 -24.779 5.588 -25.295
  73 2 1 -9.99475 -25.708 6.096 -25.66
  74 2 1 9.99355 -26.637 6.604 -26.025
  75 2 1 0.0 -27.566 7.112 -26.39
  76 2 1 0.0 -28.495 7.62 -26.755
  77 2 1 -0.00537 -29.424 8.128 -27.12
  78 2 1 0.0 -30.353 8.636 -27.485
  79 2 1 0.0 -31.282 9.144 -27.85
  80 2 1 -0.00537 -32.211 9.652 -28.215
  81 2 1 0.0 -33.14 10.16 -28.58
  82 2 1 0.0 -34.069 10.668 -28.945
  83 2 1 -0.00537 -34.998 11.176 -29.31
  84 2 1 0.0 -35.927 11.684 -29.675
  85 2 1 0.0 -36.856 12.192 -30.04
  86 2 1 -0.00537 -37.785 12.7 -30.405
  87 2 1 0.0 -38.714 13.208 -30.77
  88 2 1 0.0 -39.643 13.716 -31.135
  89 2 1 -0.00537 -40.572 14.224 -31.5
  90 2 1 -9.9999 -41.501 14.732 -31.865
  91 3 1 9.99487 -29.12 -34.72 -23.52
  92 3 1 -0.00537 -28.383 -34.081 -24.071
  93 3 1 0.0 -27.646 -33.442 -24.622
  94 3 1 0.0 -26.909 -32.803 -25.173
  95 3 1 -0.00537 -26.172 -32.164 -25.724
  96 3 1 0.0 -25.435 -31.525 -26.275
  97 3 1 0.0 -24.698 -30.886 -26.826
  98 3 1 -0.00537 -23.961 -30.247 -27.377
  99 3 1 0.0 -23.224 -29.608 -27.928
  100 3 1 0.0 -22.487 -28.969 -28.479
  101 3 1 -0.00537 -21.75 -28.33 -29.03
  102 3 1 0.0 -21.013 -27.691 -29.581
  103 3 1 -9.99475 -20.276 -27.052 -30.132
  104 3 1 9.99355 -19.539 -26.413 -30.683
  105 3 1 0.0 -18.802 -25.774 -31.234
  106 3 1 0.0 -18.065 -25.135 -31.785
  107 3 1 -0.00537 -17.328 -24.496 -32.336
  108 3 1 0.0 -16.591 -23.857 -32.887
  109 3 1 0.0 -15.854 -23.218 -33.438
  110 3 1 -0.00537 -15.117 -22.579 -33.989
  111 3 1 0.0 -14.38 -21.94 -34.54
  112 3 1 0.0 -13.643 -21.301 -35.091
  113 3 1 -0.00537 -12.906 -20.662 -35.642
  114 3 1 0.0 -12.169 -20.023 -36.193
  115 3 1 0.0 -11.432 -19.384 -36.744
  116 3 1 -0.00537 -10.695 -18.745 -37.295
  117 3 1 0.0 -9.958 -18.106 -37.846
  118 3 1 0.0 -9.221 -17.467 -38.397
  119 3 1 -0.00537 -8.484 -16.828 -38.948
  120 3 1 -9.9999 -7.747 -16.189 -39.499
  121 4 1 9.99487 8.96 -23.52 12.32
  122 4 1 -0.00537 10.046 -23.375 12.086
  123 4 1 0.0 11.132 -23.23 11.852
  124 4 1 0.0 12.218 -23.085 11.618
  125 4 1 -0.00537 13.304 -22.94 11.384
  126 4 1 0.0 14.39 -22.795 11.15
  127 4 1 0.0 15.476 -22.65 10.916
  128 4 1 -0.00537 16.562 -22.505 10.682
  129 4 1 0.0 17.648 -22.36 10.448
  130 4 1 0.0 18.734 -22.215 10.214
  131 4 1 -0.00537 19.82 -22.07 9.98
  132 4 1 0.0 20.906 -21.925 9.746
  133 4 1 -9.99475 21.992 -21.78 9.512
  134 4 1 9.99355 23.078 -21.635 9.278
  135 4 1 0.0 24.164 -21.49 9.044
  136 4 1 0.0 25.25 -21.345 8.81
  137 4 1 -0.00537 26.336 -21.2 8.576
  138 4 1 0.0 27.422 -21.055 8.342
  139 4 1 0.0 28.508 -20.91 8.108
  140 4 1 -0.00537 29.594 -20.765 7.874
  141 4 1 0.0 30.68 -20.62 7.64
  142 4 1 0.0 31.766 -20.475 7.406
  143 4 1 -0.00537 32.852 -20.33 7.172
  144 4 1 0.0 33.938 -20.185 6.938
  145 4 1 0.0 35.024 -20.04 6.704
  146 4 1 -0.00537 36.11 -19.895 6.47
  147 4 1 0.0 37.196 -19.75 6.236
  148 4 1 0.0 38.282 -19.605 6.002
  149 4 1 -0.00537 39.368 -19.46 5.768
  150 4 1 -9.9999 40.454 -19.315 5.534
  151 5 1 9.99487 39.2 -0.0 -31.36
  152 5 1 -0.00537 39.488 -0.577 -32.276
  153 5 1 0.0 39.776 -1.154 -33.192
  154 5 1 0.0 40.064 -1.731 -34.108
  155 5 1 -0.00537 40.352 -2.308 -35.024
  156 5 1 0.0 40.64 -2.885 -35.94
  157 5 1 0.0 40.928 -3.462 -36.856
  158 5 1 -0.00537 41.216 -4.039 -37.772
  159 5 1 0.0 41.504 -4.616 -38.688
  160 5 1 0.0 41.792 -5.193 -39.604
  161 5 1 -0.00537 42.08 -5.77 -40.52
  162 5 1 0.0 42.368 -6.347 -41.436
  163 5 1 -9.99475 42.656 -6.924 -42.352
  164 5 1 9.99355 42.944 -7.501 -43.268
  165 5 1 0.0 43.232 -8.078 -44.184
  166 5 1 0.0 43.52 -8.655 -45.1
  167 5 1 -0.00537 43.808 -9.232 -46.016
  168 5 1 0.0 44.096 -9.809 -46.932
  169 5 1 0.0 44.384 -10.386 -47.848
  170 5 1 -0.00537 44.672 -10.963 -48.764
  171 5 1 0.0 44.96 -11.54 -49.68
  172 5 1 0.0 45.248 -12.117 -50.596
  173 5 1 -0.00537 45.536 -12.694 -51.512
  174 5 1 0.0 45.824 -13.271 -52.428
  175 5 1 0.0 46.112 -13.848 -53.344
  176 5 1 -0.00537 46.4 -14.425 -54.26
  177 5 1 0.0 46.688 -15.002 -55.176
  178 5 1 0.0 46.976 -15.579 -56.092
  179 5 1 -0.00537 47.264 -16.156 -57.008
  180 5 1 -9.9999 47.552 -16.733 -57.924
  181 6 1 9.99487 34.72 -3.36 -39.2
  182 6 1 -0.00537 34.734 -4.318 -39.78
  183 6 1 0.0 34.748 -5.276 -40.36
  184 6 1 0.0 34.762 -6.234 -40.94
  185 6 1 -0.00537 34.776 -7.192 -41.52
  186 6 1 0.0 34.79 -8.15 -42.1
  187 6 1 0.0 34.804 -9.108 -42.68
  188 6 1 -0.00537 34.818 -10.066 -43.26
  189 6 1 0.0 34.832 -11.024 -43.84
  190 6 1 0.0 34.846 -11.982 -44.42
  191 6 1 -0.00537 34.86 -12.94 -45.0
  192 6 1 0.0 34.874 -13.898 -45.58
  193 6 1 -9.99475 34.888 -14.856 -46.16
  194 6 1 9.99355 34.902 -15.814 -46.74
  195 6 1 0.0 34.916 -16.772 -47.32
  196 6 1 0.0 34.93 -17.73 -47.9
  197 6 1 -0.00537 34.944 -18.688 -48.48
  198 6 1 0.0 34.958 -19.646 -49.06
  199 6 1 0.0 34.972 -20.604 -49.64
  200 6 1 -0.00537 34.986 -21.562 -50.22
  201 6 1 0.0 35.0 -22.52 -50.8
  202 6 1 0.0 35.014 -23.478 -51.38
  203 6 1 -0.00537 35.028 -24.436 -51.96
  204 6 1 0.0 35.042 -25.394 -52.54
  205 6 1 0.0 35.056 -26.352 -53.12
  206 6 1 -0.00537 35.07 -27.31 -53.7
  207 6 1 0.0 35.084 -28.268 -54.28
  208 6 1 0.0 35.098 -29.226 -54.86
  209 6 1 -0.00537 35.112 -30.184 -55.44
  210 6 1 -9.9999 35.126 -31.142 -56.02
  211 7 1 9.99487 -41.44 -26.88 11.2
  212 7 1 -0.00537 -42.473 -26.624 10.85
  213 7 1 0.0 -43.506 -26.368 10.5
  214 7 1 0.0 -44.539 -26.112 10.15
  215 7 1 -0.00537 -45.572 -25.856 9.8
  216 7 1 0.0 -46.605 -25.6 9.45
  217 7 1 0.0 -47.638 -25.344 9.1
  218 7 1 -0.00537 -48.671 -25.088 8.75
  219 7 1 0.0 -49.704 -24.832 8.4
  220 7 1 0.0 -50.737 -24.576 8.05
  221 7 1 -0.00537 -51.77 -24.32 7.7
  222 7 1 0.0 -52.803 -24.064 7.35
  223 7 1 -9.99475 -53.836 -23.808 7.0
  224 7 1 9.99355 -54.869 -23.552 6.65
  225 7 1 0.0 -55.902 -23.296 6.3
  226 7 1 0.0 -56.935 -23.04 5.95
  227 7 1 -0.00537 -57.968 -22.784 5.6
  228 7 1 0.0 -59.001 -22.528 5.25
  229 7 1 0.0 -60.034 -22.272 4.9
  230 7 1 -0.00537 -61.067 -22.016 4.55
  231 7 1 0.0 -62.1 -21.76 4.2
  232 7 1 0.0 -63.133 -21.504 3.85
  233 7 1 -0.00537 -64.166 -21.248 3.5
  234 7 1 0.0 -65.199 -20.992 3.15
  235 7 1 0.0 -66.232 -20.736 2.8
  236 7 1 -0.00537 -67.265 -20.48 2.45
  237 7 1 0.0 -68.298 -20.224 2.1
  238 7 1 0.0 -69.331 -19.968 1.75
  239 7 1 -0.00537 -70.364 -19.712 1.4
  240 7 1 -9.9999 -71.397 -19.456 1.05
  241 8 1 9.99487 -5.6 36.96 -24.64
  242 8 1 -0.00537 -6.636 36.537 -24.678
  243 8 1 0.0 -7.672 36.114 -24.716
  244 8 1 0.0 -8.708 35.691 -24.754
  245 8 1 -0.00537 -9.744 35.268 -24.792
  246 8 1 0.0 -10.78 34.845 -24.83
  247 8 1 0.0 -11.816 34.422 -24.868
  248 8 1 -0.00537 -12.852 33.999 -24.906
  249 8 1 0.0 -13.888 33.576 -24.944
  250 8 1 0.0 -14.924 33.153 -24.982
  251 8 1 -0.00537 -15.96 32.73 -25.02
  252 8 1 0.0 -16.996 32.307 -25.058
  253 8 1 -9.99475 -18.032 31.884 -25.096
  254 8 1 9.99355 -19.068 31.461 -25.134
  255 8 1 0.0 -20.104 31.038 -25.172
  256 8 1 0.0 -21.14 30.615 -25.21
  257 8 1 -0.00537 -22.176 30.192 -25.248
  258 8 1 0.0 -23.212 29.769 -25.286
  259 8 1 0.0 -24.248 29.346 -25.324
  260 8 1 -0.00537 -25.284 28.923 -25.362
  261 8 1 0.0 -26.32 28.5 -25.4
  262 8 1 0.0 -27.356 28.077 -25.438
  263 8 1 -0.00537 -28.392 27.654 -25.476
  264 8 1 0.0 -29.428 27.231 -25.514
  265 8 1 0.0 -30.464 26.808 -25.552
  266 8 1 -0.00537 -31.5 26.385 -25.59
  267 8 1 0.0 -32.536 25.962 -25.628
  268 8 1 0.0 -33.572 25.539 -25.666
  269 8 1 -0.00537 -34.608 25.116 -25.704
  270 8 1 -9.9999 -35.644 24.693 -25.742
  271 9 1 9.99487 -15.68 -34.72 -0.0
  272 9 1 -0.00537 -15.213 -34.988 -0.982
  273 9 1 0.0 -14.746 -35.256 -1.964
  274 9 1 0.0 -14.279 -35.524 -2.946
  275 9 1 -0.00537 -13.812 -35.792 -3.928
  276 9 1 0.0 -13.345 -36.06 -4.91
  277 9 1 0.0 -12.878 -36.328 -5.892
  278 9 1 -0.00537 -12.411 -36.596 -6.874
  279 9 1 0.0 -11.944 -36.864 -7.856
  280 9 1 0.0 -11.477 -37.132 -8.838
  281 9 1 -0.00537 -11.01 -37.4 -9.82
  282 9 1 0.0 -10.543 -37.668 -10.802
  283 9 1 -9.99475 -10.076 -37.936 -11.784
  284 9 1 9.99355 -9.609 -38.204 -12.766
  285 9 1 0.0 -9.142 -38.472 -13.748
  286 9 1 0.0 -8.675 -38.74 -14.73
  287 9 1 -0.00537 -8.208 -39.008 -15.712
  288 9 1 0.0 -7.741 -39.276 -16.694
  289 9 1 0.0 -7.274 -39.544 -17.676
  290 9 1 -0.00537 -6.807 -39.812 -18.658
  291 9 1 0.0 -6.34 -40.08 -19.64
  292 9 1 0.0 -5.873 -40.348 -20.622
  293 9 1 -0.00537 -5.406 -40.616 -21.604
  294 9 1 0.0 -4.939 -40.884 -22.586
  295 9 1 0.0 -4.472 -41.152 -23.568
  296 9 1 -0.00537 -4.005 -41.42 -24.55
  297 9 1 0.0 -3.538 -41.688 -25.532
  298 9 1 0.0 -3.071 -41.956 -26.514
  299 9 1 -0.00537 -2.604 -42.224 -27.496
  300 9 1 -9.9999 -2.137 -42.492 -28.478
  301 10 1 9.99487 28.0 29.12 -35.84
  302 10 1 -0.00537 28.305 28.233 -36.452
  303 10 1 0.0 28.61 27.346 -37.064
  304 10 1 0.0 28.915 26.459 -37.676
  305 10 1 -0.00537 29.22 25.572 -38.288
  306 10 1 0.0 29.525 24.685 -38.9
  307 10 1 0.0 29.83 23.798 -39.512
  308 10 1 -0.00537 30.135 22.911 -40.124
  309 10 1 0.0 30.44 22.024 -40.736
  310 10 1 0.0 30.745 21.137 -41.348
  311 10 1 -0.00537 31.05 20.25 -41.96
  312 10 1 0.0 31.355 19.363 -42.572
  313 10 1 -9.99475 31.66 18.476 -43.184
  314 10 1 9.99355 31.965 17.589 -43.796
  315 10 1 0.0 32.27 16.702 -44.408
  316 10 1 0.0 32.575 15.815 -45.02
  317 10 1 -0.00537 32.88 14.928 -45.632
  318 10 1 0.0 33.185 14.041 -46.244
  319 10 1 0.0 33.49 13.154 -46.856
  320 10 1 -0.00537 33.795 12.267 -47.468
  321 10 1 0.0 34.1 11.38 -48.08
  322 10 1 0.0 34.405 10.493 -48.692
  323 10 1 -0.00537 34.71 9.606 -49.304
  324 10 1 0.0 35.015 8.719 -49.916
  325 10 1 0.0 35.32 7.832 -50.528
  326 10 1 -0.00537 35.625 6.945 -51.14
  327 10 1 0.0 35.93 6.058 -51.752
  328 10 1 0.0 36.235 5.171 -52.364
  329 10 1 -0.00537 36.54 4.284 -52.976
  330 10 1 -9.9999 36.845 3.397 -53.588
  331 11 1 9.99487 44.8 -45.92 35.84
  332 11 1 -0.00537 44.486 -45.082 36.514
  333 11 1 0.0 44.172 -44.244 37.188
  334 11 1 0.0 43.858 -43.406 37.862
  335 11 1 -0.00537 43.544 -42.568 38.536
  336 11 1 0.0 43.23 -41.73 39.21
  337 11 1 0.0 42.916 -40.892 39.884
  338 11 1 -0.00537 42.602 -40.054 40.558
  339 11 1 0.0 42.288 -39.216 41.232
  340 11 1 0.0 41.974 -38.378 41.906
  341 11 1 -0.00537 41.66 -37.54 42.58
  342 11 1 0.0 41.346 -36.702 43.254
  343 11 1 -9.99475 41.032 -35.864 43.928
  344 11 1 9.99355 40.718 -35.026 44.602
  345 11 1 0.0 40.404 -34.188 45.276
  346 11 1 0.0 40.09 -33.35 45.95
  347 11 1 -0.00537 39.776 -32.512 46.624
  348 11 1 0.0 39.462 -31.674 47.298
  349 11 1 0.0 39.148 -30.836 47.972
  350 11 1 -0.00537 38.834 -29.998 48.646
  351 11 1 0.0 38.52 -29.16 49.32
  352 11 1 0.0 38.206 -28.322 49.994
  353 11 1 -0.00537 37.892 -27.484 50.668
  354 11 1 0.0 37.578 -26.646 51.342
  355 11 1 0.0 37.264 -25.808 52.016
  356 11 1 -0.00537 36.95 -24.97 52.69
  357 11 1 0.0 36.636 -24.132 53.364
  358 11 1 0.0 36.322 -23.294 54.038
  359 11 1 -0.00537 36.008 -22.456 54.712
  360 11 1 -9.9999 35.694 -21.618 55.386
  361 12 1 9.99487 -32.48 7.84 -14.56
  362 12 1 -0.00537 -32.175 7.171 -15.405
  363 12 1 0.0 -31.87 6.502 -16.25
  364 12 1 0.0 -31.565 5.833 -17.095
  365 12 1 -0.00537 -31.26 5.164 -17.94
  366 12 1 0.0 -30.955 4.495 -18.785
  367 12 1 0.0 -30.65 3.826 -19.63
  368 12 1 -0.00537 -30.345 3.157 -20.475
  369 12 1 0.0 -30.04 2.488 -21.32
  370 12 1 0.0 -29.735 1.819 -22.165
  371 12 1 -0.00537 -29.43 1.15 -23.01
  372 12 1 0.0 -29.125 0.481 -23.855
  373 12 1 -9.99475 -28.82 -0.188 -24.7
  374 12 1 9.99355 -28.515 -0.857 -25.545
  375 12 1 0.0 -28.21 -1.526 -26.39
  376 12 1 0.0 -27.905 -2.195 -27.235
  377 12 1 -0.00537 -27.6 -2.864 -28.08
  378 12 1 0.0 -27.295 -3.533 -28.925
  379 12 1 0.0 -26.99 -4.202 -29.77
  380 12 1 -0.00537 -26.685 -4.871 -30.615
  381 12 1 0.0 -26.38 -5.54 -31.46
  382 12 1 0.0 -26.075 -6.209 -32.305
  383 12 1 -0.00537 -25.77 -6.878 -33.15
  384 12 1 0.0 -25.465 -7.547 -33.995
  385 12 1 0.0 -25.16 -8.216 -34.84
  386 12 1 -0.00537 -24.855 -8.885 -35.685
  387 12 1 0.0 -24.55 -9.554 -36.53
  388 12 1 0.0 -24.245 -10.223 -37.375
  389 12 1 -0.00537 -23.94 -10.892 -38.22
  390 12 1 -9.9999 -23.635 -11.561 -39.065
  391 13 1 9.99487 8.96 -0.0 -44.8
  392 13 1 -0.00537 9.818 -0.025 -45.519
  393 13 1 0.0 10.676 -0.05 -46.238
  394 13 1 0.0 11.534 -0.075 -46.957
  395 13 1 -0.00537 12.392 -0.1 -47.676
  396 13 1 0.0 13.25 -0.125 -48.395
  397 13 1 0.0 14.108 -0.15 -49.114
  398 13 1 -0.00537 14.966 -0.175 -49.833
  399 13 1 0.0 15.824 -0.2 -50.552
  400 13 1 0.0 16.682 -0.225 -51.271
  401 13 1 -0.00537 17.54 -0.25 -51.99
  402 13 1 0.0 18.398 -0.275 -52.709
  403 13 1 -9.99475 19.256 -0.3 -53.428
  404 13 1 9.99355 20.114 -0.325 -54.147
  405 13 1 0.0 20.972 -0.35 -54.866
  406 13 1 0.0 21.83 -0.375 -55.585
  407 13 1 -0.00537 22.688 -0.4 -56.304
  408 13 1 0.0 23.546 -0.425 -57.023
  409 13 1 0.0 24.404 -0.45 -57.742
  410 13 1 -0.00537 25.262 -0.475 -58.461
  411 13 1 0.0 26.12 -0.5 -59.18
  412 13 1 0.0 26.978 -0.525 -59.899
  413 13 1 -0.00537 27.836 -0.55 -60.618
  414 13 1 0.0 28.694 -0.575 -61.337
  415 13 1 0.0 29.552 -0.6 -62.056
  416 13 1 -0.00537 30.41 -0.625 -62.775
  417 13 1 0.0 31.268 -0.65 -63.494
  418 13 1 0.0 32.126 -0.675 -64.213
  419 13 1 -0.00537 32.984 -0.7 -64.932
  420 13 1 -9.9999 33.842 -0.725 -65.651
  421 14 1 9.99487 -44.8 -10.08 44.8
  422 14 1 -0.00537 -45.0 -10.819 45.617
  423 14 1 0.0 -45.2 -11.558 46.434
  424 14 1 0.0 -45.4 -12.297 47.251
  425 14 1 -0.00537 -45.6 -13.036 48.068
  426 14 1 0.0 -45.8 -13.775 48.885
  427 14 1 0.0 -46.0 -14.514 49.702
  428 14 1 -0.00537 -46.2 -15.253 50.519
  429 14 1 0.0 -46.4 -15.992 51.336
  430 14 1 0.0 -46.6 -16.731 52.153
  431 14 1 -0.00537 -46.8 -17.47 52.97
  432 14 1 0.0 -47.0 -18.209 53.787
  433 14 1 -9.99475 -47.2 -18.948 54.604
  434 14 1 9.99355 -47.4 -19.687 55.421
  435 14 1 0.0 -47.6 -20.426 56.238
  436 14 1 0.0 -47.8 -21.165 57.055
  437 14 1 -0.00537 -48.0 -21.904 57.872
  438 14 1 0.0 -48.2 -22.643 58.689
  439 14 1 0.0 -48.4 -23.382 59.506
  440 14 1 -0.00537 -48.6 -24.121 60.323
  441 14 1 0.0 -48.8 -24.86 61.14
  442 14 1 0.0 -49.0 -25.599 61.957
  443 14 1 -0.00537 -49.2 -26.338 62.774
  444 14 1 0.0 -49.4 -27.077 63.591
  445 14 1 0.0 -49.6 -27.816 64.408
  446 14 1 -0.00537 -49.8 -28.555 65.225
  447 14 1 0.0 -50.0 -29.294 66.042
  448 14 1 0.0 -50.2 -30.033 66.859
  449 14 1 -0.00537 -50.4 -30.772 67.676
  450 14 1 -9.9999 -50.6 -31.511 68.493
  451 15 1 9.99487 -30.24 35.84 -48.16
  452 15 1 -0.00537 -30.823 36.552 -47.522
  453 15 1 0.0 -31.406 37.264 -46.884
  454 15 1 0.0 -31.989 37.976 -46.246
  455 15 1 -0.00537 -32.572 38.688 -45.608
  456 15 1 0.0 -33.155 39.4 -44.97
  457 15 1 0.0 -33.738 40.112 -44.332
  458 15 1 -0.00537 -34.321 40.824 -43.694
  459 15 1 0.0 -34.904 41.536 -43.056
  460 15 1 0.0 -35.487 42.248 -42.418
  461 15 1 -0.00537 -36.07 42.96 -41.78
  462 15 1 0.0 -36.653 43.672 -41.142
  463 15 1 -9.99475 -37.236 44.384 -40.504
  464 15 1 9.99355 -37.819 45.096 -39.866
  465 15 1 0.0 -38.402 45.808 -39.228
  466 15 1 0.0 -38.985 46.52 -38.59
  467 15 1 -0.00537 -39.568 47.232 -37.952
  468 15 1 0.0 -40.151 47.944 -37.314
  469 15 1 0.0 -40.734 48.656 -36.676
  470 15 1 -0.00537 -41.317 49.368 -36.038
  471 15 1 0.0 -41.9 50.08 -35.4
  472 15 1 0.0 -42.483 50.792 -34.762
  473 15 1 -0.00537 -43.066 51.504 -34.124
  474 15 1 0.0 -43.649 52.216 -33.486
  475 15 1 0.0 -44.232 52.928 -32.848
  476 15 1 -0.00537 -44.815 53.64 -32.21
  477 15 1 0.0 -45.398 54.352 -31.572
  478 15 1 0.0 -45.981 55.064 -30.934
  479 15 1 -0.00537 -46.564 55.776 -30.296
  480 15 1 -9.9999 -47.147 56.488 -29.658
  481 16 1 9.99487 12.32 36.96 -21.28
  482 16 1 -0.00537 12.73 36.213 -20.553
  483 16 1 0.0 13.14 35.466 -19.826
  484 16 1 0.0 13.55 34.719 -19.099
  485 16 1 -0.00537 13.96 33.972 -18.372
  486 16 1 0.0 14.37 33.225 -17.645
  487 16 1 0.0 14.78 32.478 -16.918
  488 16 1 -0.00537 15.19 31.731 -16.191
  489 16 1 0.0 15.6 30.984 -15.464
  490 16 1 0.0 16.01 30.237 -14.737
  491 16 1 -0.00537 16.42 29.49 -14.01
  492 16 1 0.0 16.83 28.743 -13.283
  493 16 1 -9.99475 17.24 27.996 -12.556
  494 16 1 9.99355 17.65 27.249 -11.829
  495 16 1 0.0 18.06 26.502 -11.102
  496 16 1 0.0 18.47 25.755 -10.375
  497 16 1 -0.00537 18.88 25.008 -9.648
  498 16 1 0.0 19.29 24.261 -8.921
  499 16 1 0.0 19.7 23.514 -8.194
  500 16 1 -0.00537 20.11 22.767 -7.467
  501 16 1 0.0 20.52 22.02 -6.74
  502 16 1 0.0 20.93 21.273 -6.013
  503 16 1 -0.00537 21.34 20.526 -5.286
  504 16 1 0.0 21.75 19.779 -4.559
  505 16 1 0.0 22.16 19.032 -3.832
  506 16 1 -0.00537 22.57 18.285 -3.105
  507 16 1 0.0 22.98 17.538 -2.378
  508 16 1 0.0 23.39 16.791 -1.651
  509 16 1 -0.00537 23.8 16.044 -0.924
  510 16 1 -9.9999 24.21 15.297 -0.197
  511 17 1 9.99487 45.92 -47.04 33.6
  512 17 1 -0.00537 45.267 -47.861 33.208
  513 17 1 0.0 44.614 -48.682 32.816
  514 17 1 0.0 43.961 -49.503 32.424
  515 17 1 -0.00537 43.308 -50.324 32.032
  516 17 1 0.0 42.655 -51.145 31.64
  517 17 1 0.0 42.002 -51.966 31.248
  518 17 1 -0.00537 41.349 -52.787 30.856
  519 17 1 0.0 40.696 -53.608 30.464
  520 17 1 0.0 40.043 -54.429 30.072
  521 17 1 -0.00537 39.39 -55.25 29.68
  522 17 1 0.0 38.737 -56.071 29.288
  523 17 1 -9.99475 38.084 -56.892 28.896
  524 17 1 9.99355 37.431 -57.713 28.504
  525 17 1 0.0 36.778 -58.534 28.112
  526 17 1 0.0 36.125 -59.355 27.72
  527 17 1 -0.00537 35.472 -60.176 27.328
  528 17 1 0.0 34.819 -60.997 26.936
  529 17 1 0.0 34.166 -61.818 26.544
  530 17 1 -0.00537 33.513 -62.639 26.152
  531 17 1 0.0 32.86 -63.46 25.76
  532 17 1 0.0 32.207 -64.281 25.368
  533 17 1 -0.00537 31.554 -65.102 24.976
  534 17 1 0.0 30.901 -65.923 24.584
  535 17 1 0.0 30.248 -66.744 24.192
  536 17 1 -0.00537 29.595 -67.565 23.8
  537 17 1 0.0 28.942 -68.386 23.408
  538 17 1 0.0 28.289 -69.207 23.016
  539 17 1 -0.00537 27.636 -70.028 22.624
  540 17 1 -9.9999 26.983 -70.849 22.232
  541 18 1 9.99487 -11.2 31.36 41.44
  542 18 1 -0.00537 -11.89 32.136 41.02
  543 18 1 0.0 -12.58 32.912 40.6
  544 18 1 0.0 -13.27 33.688 40.18
  545 18 1 -0.00537 -13.96 34.464 39.76
  546 18 1 0.0 -14.65 35.24 39.34
  547 18 1 0.0 -15.34 36.016 38.92
  548 18 1 -0.00537 -16.03 36.792 38.5
  549 18 1 0.0 -16.72 37.568 38.08
  550 18 1 0.0 -17.41 38.344 37.66
  551 18 1 -0.00537 -18.1 39.12 37.24
  552 18 1 0.0 -18.79 39.896 36.82
  553 18 1 -9.99475 -19.48 40.672 36.4
  554 18 1 9.99355 -20.17 41.448 35.98
  555 18 1 0.0 -20.86 42.224 35.56
  556 18 1 0.0 -21.55 43.0 35.14
  557 18 1 -0.00537 -22.24 43.776 34.72
  558 18 1 0.0 -22.93 44.552 34.3
  559 18 1 0.0 -23.62 45.328 33.88
  560 18 1 -0.00537 -24.31 46.104 33.46
  561 18 1 0.0 -25.0 46.88 33.04
  562 18 1 0.0 -25.69 47.656 32.62
  563 18 1 -0.00537 -26.38 48.432 32.2
  564 18 1 0.0 -27.07 49.208 31.78
  565 18 1 0.0 -27.76 49.984 31.36
  566 18 1 -0.00537 -28.45 50.76 30.94
  567 18 1 0.0 -29.14 51.536 30.52
  568 18 1 0.0 -29.83 52.312 30.1
  569 18 1 -0.00537 -30.52 53.088 29.68
  570 18 1 -9.9999 -31.21 53.864 29.26
  571 19 1 9.99487 19.04 -8.96 48.16
  572 19 1 -0.00537 19.833 -8.795 48.933
  573 19 1 0.0 20.626 -8.63 49.706
  574 19 1 0.0 21.419 -8.465 50.479
  575 19 1 -0.00537 22.212 -8.3 51.252
  576 19 1 0.0 23.005 -8.135 52.025
  577 19 1 0.0 23.798 -7.97 52.798
  578 19 1 -0.00537 24.591 -7.805 53.571
  579 19 1 0.0 25.384 -7.64 54.344
  580 19 1 0.0 26.177 -7.475 55.117
  581 19 1 -0.00537 26.97 -7.31 55.89
  582 19 1 0.0 27.763 -7.145 56.663
  583 19 1 -9.99475 28.556 -6.98 57.436
  584 19 1 9.99355 29.349 -6.815 58.209
  585 19 1 0.0 30.142 -6.65 58.982
  586 19 1 0.0 30.935 -6.485 59.755
  587 19 1 -0.00537 31.728 -6.32 60.528
  588 19 1 0.0 32.521 -6.155 61.301
  589 19 1 0.0 33.314 -5.99 62.074
  590 19 1 -0.00537 34.107 -5.825 62.847
  591 19 1 0.0 34.9 -5.66 63.62
  592 19 1 0.0 35.693 -5.495 64.393
  593 19 1 -0.00537 36.486 -5.33 65.166
  594 19 1 0.0 37.279 -5.165 65.939
  595 19 1 0.0 38.072 -5.0 66.712
  596 19 1 -0.00537 38.865 -4.835 67.485
  597 19 1 0.0 39.658 -4.67 68.258
  598 19 1 0.0 40.451 -4.505 69.031
  599 19 1 -0.00537 41.244 -4.34 69.804
  600 19 1 -9.9999 42.037 -4.175 70.577
  601 20 1 9.99487 24.64 20.16 -28.0
  602 20 1 -0.00537 24.608 19.462 -28.875
  603 20 1 0.0 24.576 18.764 -29.75
  604 20 1 0.0 24.544 18.066 -30.625
  605 20 1 -0.00537 24.512 17.368 -31.5
  606 20 1 0.0 24.48 16.67 -32.375
  607 20 1 0.0 24.448 15.972 -33.25
  608 20 1 -0.00537 24.416 15.274 -34.125
  609 20 1 0.0 24.384 14.576 -35.0
  610 20 1 0.0 24.352 13.878 -35.875
  611 20 1 -0.00537 24.32 13.18 -36.75
  612 20 1 0.0 24.288 12.482 -37.625
  613 20 1 -9.99475 24.256 11.784 -38.5
  614 20 1 9.99355 24.224 11.086 -39.375
  615 20 1 0.0 24.192 10.388 -40.25
  616 20 1 0.0 24.16 9.69 -41.125
  617 20 1 -0.00537 24.128 8.992 -42.0
  618 20 1 0.0 24.096 8.294 -42.875
  619 20 1 0.0 24.064 7.596 -43.75
  620 20 1 -0.00537 24.032 6.898 -44.625
  621 20 1 0.0 24.0 6.2 -45.5
  622 20 1 0.0 23.968 5.502 -46.375
  623 20 1 -0.00537 23.936 4.804 -47.25
  624 20 1 0.0 23.904 4.106 -48.125
  625 20 1 0.0 23.872 3.408 -49.0
  626 20 1 -0.00537 23.84 2.71 -49.875
  627 20 1 0.0 23.808 2.012 -50.75
  628 20 1 0.0 23.776 1.314 -51.625
  629 20 1 -0.00537 23.744 0.616 -52.5
  630 20 1 -9.9999 23.712 -0.082 -53.375
  631 21 1 9.99487 30.24 -2.24 39.2
  632 21 1 -0.00537 30.893 -1.335 39.29
  633 21 1 0.0 31.546 -0.43 39.38
  634 21 1 0.0 32.199 0.475 39.47
  635 21 1 -0.00537 32.852 1.38 39.56
  636 21 1 0.0 33.505 2.285 39.65
  637 21 1 0.0 34.158 3.19 39.74
  638 21 1 -0.00537 34.811 4.095 39.83
  639 21 1 0.0 35.464 5.0 39.92
  640 21 1 0.0 36.117 5.905 40.01
  641 21 1 -0.00537 36.77 6.81 40.1
  642 21 1 0.0 37.423 7.715 40.19
  643 21 1 -9.99475 38.076 8.62 40.28
  644 21 1 9.99355 38.729 9.525 40.37
  645 21 1 0.0 39.382 10.43 40.46
  646 21 1 0.0 40.035 11.335 40.55
  647 21 1 -0.00537 40.688 12.24 40.64
  648 21 1 0.0 41.341 13.145 40.73
  649 21 1 0.0 41.994 14.05 40.82
  650 21 1 -0.00537 42.647 14.955 40.91
  651 21 1 0.0 43.3 15.86 41.0
  652 21 1 0.0 43.953 16.765 41.09
  653 21 1 -0.00537 44.606 17.67 41.18
  654 21 1 0.0 45.259 18.575 41.27
  655 21 1 0.0 45.912 19.48 41.36
  656 21 1 -0.00537 46.565 20.385 41.45
  657 21 1 0.0 47.218 21.29 41.54
  658 21 1 0.0 47.871 22.195 41.63
  659 21 1 -0.00537 48.524 23.1 41.72
  660 21 1 -9.9999 49.177 24.005 41.81
  661 22 1 9.99487 39.2 7.84 13.44
  662 22 1 -0.00537 38.474 8.508 12.91
  663 22 1 0.0 37.748 9.176 12.38
  664 22 1 0.0 37.022 9.844 11.85
  665 22 1 -0.00537 36.296 10.512 11.32
  666 22 1 0.0 35.57 11.18 10.79
  667 22 1 0.0 34.844 11.848 10.26
  668 22 1 -0.00537 34.118 12.516 9.73
  669 22 1 0.0 33.392 13.184 9.2
  670 22 1 0.0 32.666 13.852 8.67
  671 22 1 -0.00537 31.94 14.52 8.14
  672 22 1 0.0 31.214 15.188 7.61
  673 22 1 -9.99475 30.488 15.856 7.08
  674 22 1 9.99355 29.762 16.524 6.55
  675 22 1 0.0 29.036 17.192 6.02
  676 22 1 0.0 28.31 17.86 5.49
  677 22 1 -0.00537 27.584 18.528 4.96
  678 22 1 0.0 26.858 19.196 4.43
  679 22 1 0.0 26.132 19.864 3.9
  680 22 1 -0.00537 25.406 20.532 3.37
  681 22 1 0.0 24.68 21.2 2.84
  682 22 1 0.0 23.954 21.868 2.31
  683 22 1 -0.00537 23.228 22.536 1.78
  684 22 1 0.0 22.502 23.204 1.25
  685 22 1 0.0 21.776 23.872 0.72
  686 22 1 -0.00537 21.05 24.54 0.19
  687 22 1 0.0 20.324 25.208 -0.34
  688 22 1 0.0 19.598 25.876 -0.87
  689 22 1 -0.00537 18.872 26.544 -1.4
  690 22 1 -9.9999 18.146 27.212 -1.93
  691 23 1 9.99487 31.36 -38.08 44.8
  692 23 1 -0.00537 31.864 -37.734 43.862
  693 23 1 0.0 32.368 -37.388 42.924
  694 23 1 0.0 32.872 -37.042 41.986
  695 23 1 -0.00537 33.376 -36.696 41.048
  696 23 1 0.0 33.88 -36.35 40.11
  697 23 1 0.0 34.384 -36.004 39.172
  698 23 1 -0.00537 34.888 -35.658 38.234
  699 23 1 0.0 35.392 -35.312 37.296
  700 23 1 0.0 35.896 -34.966 36.358
  701 23 1 -0.00537 36.4 -34.62 35.42
  702 23 1 0.0 36.904 -34.274 34.482
  703 23 1 -9.99475 37.408 -33.928 33.544
  704 23 1 9.99355 37.912 -33.582 32.606
  705 23 1 0.0 38.416 -33.236 31.668
  706 23 1 0.0 38.92 -32.89 30.73
  707 23 1 -0.00537 39.424 -32.544 29.792
  708 23 1 0.0 39.928 -32.198 28.854
  709 23 1 0.0 40.432 -31.852 27.916
  710 23 1 -0.00537 40.936 -31.506 26.978
  711 23 1 0.0 41.44 -31.16 26.04
  712 23 1 0.0 41.944 -30.814 25.102
  713 23 1 -0.00537 42.448 -30.468 24.164
  714 23 1 0.0 42.952 -30.122 23.226
  715 23 1 0.0 43.456 -29.776 22.288
  716 23 1 -0.00537 43.96 -29.43 21.35
  717 23 1 0.0 44.464 -29.084 20.412
  718 23 1 0.0 44.968 -28.738 19.474
  719 23 1 -0.00537 45.472 -28.392 18.536
  720 23 1 -9.9999 45.976 -28.046 17.598
  721 24 1 9.99487 -14.56 -26.88 42.56
  722 24 1 -0.00537 -15.514 -27.295 42.976
  723 24 1 0.0 -16.468 -27.71 43.392
  724 24 1 0.0 -17.422 -28.125 43.808
  725 24 1 -0.00537 -18.376 -28.54 44.224
  726 24 1 0.0 -19.33 -28.955 44.64
  727 24 1 0.0 -20.284 -29.37 45.056
  728 24 1 -0.00537 -21.238 -29.785 45.472
  729 24 1 0.0 -22.192 -30.2 45.888
  730 24 1 0.0 -23.146 -30.615 46.304
  731 24 1 -0.00537 -24.1 -31.03 46.72
  732 24 1 0.0 -25.054 -31.445 47.136
  733 24 1 -9.99475 -26.008 -31.86 47.552
  734 24 1 9.99355 -26.962 -32.275 47.968
  735 24 1 0.0 -27.916 -32.69 48.384
  736 24 1 0.0 -28.87 -33.105 48.8
  737 24 1 -0.00537 -29.824 -33.52 49.216
  738 24 1 0.0 -30.778 -33.935 49.632
  739 24 1 0.0 -31.732 -34.35 50.048
  740 24 1 -0.00537 -32.686 -34.765 50.464
  741 24 1 0.0 -33.64 -35.18 50.88
  742 24 1 0.0 -34.594 -35.595 51.296
  743 24 1 -0.00537 -35.548 -36.01 51.712
  744 24 1 0.0 -36.502 -36.425 52.128
  745 24 1 0.0 -37.456 -36.84 52.544
  746 24 1 -0.00537 -38.41 -37.255 52.96
  747 24 1 0.0 -39.364 -37.67 53.376
  748 24 1 0.0 -40.318 -38.085 53.792
  749 24 1 -0.00537 -41.272 -38.5 54.208
  750 24 1 -9.9999 -42.226 -38.915 54.624
  751 25 1 9.99487 48.16 10.08 -3.36
  752 25 1 -0.00537 47.781 10.318 -4.387
  753 25 1 0.0 47.402 10.556 -5.414
  754 25 1 0.0 47.023 10.794 -6.441
  755 25 1 -0.00537 46.644 11.032 -7.468
  756 25 1 0.0 46.265 11.27 -8.495
  757 25 1 0.0 45.886 11.508 -9.522
  758 25 1 -0.00537 45.507 11.746 -10.549
  759 25 1 0.0 45.128 11.984 -11.576
  760 25 1 0.0 44.749 12.222 -12.603
  761 25 1 -0.00537 44.37 12.46 -13.63
  762 25 1 0.0 43.991 12.698 -14.657
  763 25 1 -9.99475 43.612 12.936 -15.684
  764 25 1 9.99355 43.233 13.174 -16.711
  765 25 1 0.0 42.854 13.412 -17.738
  766 25 1 0.0 42.475 13.65 -18.765
  767 25 1 -0.00537 42.096 13.888 -19.792
  768 25 1 0.0 41.717 14.126 -20.819
  769 25 1 0.0 41.338 14.364 -21.846
  770 25 1 -0.00537 40.959 14.602 -22.873
  771 25 1 0.0 40.58 14.84 -23.9
  772 25 1 0.0 40.201 15.078 -24.927
  773 25 1 -0.00537 39.822 15.316 -25.954
  774 25 1 0.0 39.443 15.554 -26.981
  775 25 1 0.0 39.064 15.792 -28.008
  776 25 1 -0.00537 38.685 16.03 -29.035
  777 25 1 0.0 38.306 16.268 -30.062
  778 25 1 0.0 37.927 16.506 -31.089
  779 25 1 -0.00537 37.548 16.744 -32.116
  780 25 1 -9.9999 37.169 16.982 -33.143
  781 26 1 9.99487 -1.12 -38.08 -0.0
  782 26 1 -0.00537 -0.943 -38.806 -0.834
  783 26 1 0.0 -0.766 -39.532 -1.668
  784 26 1 0.0 -0.589 -40.258 -2.502
  785 26 1 -0.00537 -0.412 -40.984 -3.336
  786 26 1 0.0 -0.235 -41.71 -4.17
  787 26 1 0.0 -0.058 -42.436 -5.004
  788 26 1 -0.00537 0.119 -43.162 -5.838
  789 26 1 0.0 0.296 -43.888 -6.672
  790 26 1 0.0 0.473 -44.614 -7.506
  791 26 1 -0.00537 0.65 -45.34 -8.34
  792 26 1 0.0 0.827 -46.066 -9.174