LAMMPS CONFIG FILE

  600 atoms
  0 bonds
  0 angles

  1 atom types
  0 bond types
  0 angle types

  -50  50 xlo xhi
  -50  50 ylo yhi
  -50  50 zlo zhi

Masses

  1 1.0

Atoms

  1 1 1 9.99487 -27.7072191443 14.7063033844 -2.33831854379
  2 1 1 -0.00537 -27.3482191443 14.4603033844 -3.37031854379
  3 1 1 0.0 -26.9892191443 14.2143033844 -4.40231854379
  4 1 1 0.0 -26.6302191443 13.9683033844 -5.43431854379
  5 1 1 -0.00537 -26.2712191443 13.7223033844 -6.46631854379
  6 1 1 0.0 -25.9122191443 13.4763033844 -7.49831854379
  7 1 1 0.0 -25.5532191443 13.2303033844 -8.53031854379
  8 1 1 -0.00537 -25.1942191443 12.9843033844 -9.56231854379
  9 1 1 0.0 -24.8352191443 12.7383033844 -10.5943185438
  10 1 1 0.0 -24.4762191443 12.4923033844 -11.6263185438
  11 1 1 -0.00537 -24.1172191443 12.2463033844 -12.6583185438
  12 1 1 0.0 -23.7582191443 12.0003033844 -13.6903185438
  13 1 1 -9.99475 -23.3992191443 11.7543033844 -14.7223185438
  14 1 1 9.99355 -23.0402191443 11.5083033844 -15.7543185438
  15 1 1 0.0 -22.6812191443 11.2623033844 -16.7863185438
  16 1 1 0.0 -22.3222191443 11.0163033844 -17.8183185438
  17 1 1 -0.00537 -21.9632191443 10.7703033844 -18.8503185438
  18 1 1 0.0 -21.6042191443 10.5243033844 -19.8823185438
  19 1 1 0.0 -21.2452191443 10.2783033844 -20.9143185438
  20 1 1 -0.00537 -20.8862191443 10.0323033844 -21.9463185438
  21 1 1 0.0 -20.5272191443 9.78630338445 -22.9783185438
  22 1 1 0.0 -20.1682191443 9.54030338445 -24.0103185438
  23 1 1 -0.00537 -19.8092191443 9.29430338445 -25.0423185438
  24 1 1 0.0 -19.4502191443 9.04830338445 -26.0743185438
  25 1 1 0.0 -19.0912191443 8.80230338445 -27.1063185438
  26 1 1 -0.00537 -18.7322191443 8.55630338445 -28.1383185438
  27 1 1 0.0 -18.3732191443 8.31030338445 -29.1703185438
  28 1 1 0.0 -18.0142191443 8.06430338445 -30.2023185438
  29 1 1 -0.00537 -17.6552191443 7.81830338445 -31.2343185438
  30 1 1 -9.9999 -17.2962191443 7.57230338445 -32.2663185438
  31 2 1 9.99487 39.4797125929 -24.0311318955 -33.3567467341
  32 2 1 -0.00537 39.3037125929 -22.9961318955 -33.7457467341
  33 2 1 0.0 39.1277125929 -21.9611318955 -34.1347467341
  34 2 1 0.0 38.9517125929 -20.9261318955 -34.5237467341
  35 2 1 -0.00537 38.7757125929 -19.8911318955 -34.9127467341
  36 2 1 0.0 38.5997125929 -18.8561318955 -35.3017467341
  37 2 1 0.0 38.4237125929 -17.8211318955 -35.6907467341
  38 2 1 -0.00537 38.2477125929 -16.7861318955 -36.0797467341
  39 2 1 0.0 38.0717125929 -15.7511318955 -36.4687467341
  40 2 1 0.0 37.8957125929 -14.7161318955 -36.8577467341
  41 2 1 -0.00537 37.7197125929 -13.6811318955 -37.2467467341
  42 2 1 0.0 37.5437125929 -12.6461318955 -37.6357467341
  43 2 1 -9.99475 37.3677125929 -11.6111318955 -38.0247467341
  44 2 1 9.99355 37.1917125929 -10.5761318955 -38.4137467341
  45 2 1 0.0 37.0157125929 -9.54113189553 -38.8027467341
  46 2 1 0.0 36.8397125929 -8.50613189553 -39.1917467341
  47 2 1 -0.00537 36.6637125929 -7.47113189553 -39.5807467341
  48 2 1 0.0 36.4877125929 -6.43613189553 -39.9697467341
  49 2 1 0.0 36.3117125929 -5.40113189553 -40.3587467341
  50 2 1 -0.00537 36.1357125929 -4.36613189553 -40.7477467341
  51 2 1 0.0 35.9597125929 -3.33113189553 -41.1367467341
  52 2 1 0.0 35.7837125929 -2.29613189553 -41.5257467341
  53 2 1 -0.00537 35.6077125929 -1.26113189553 -41.9147467341
  54 2 1 0.0 35.4317125929 -0.226131895529 -42.3037467341
  55 2 1 0.0 35.2557125929 0.808868104471 -42.6927467341
  56 2 1 -0.00537 35.0797125929 1.84386810447 -43.0817467341
  57 2 1 0.0 34.9037125929 2.87886810447 -43.4707467341
  58 2 1 0.0 34.7277125929 3.91386810447 -43.8597467341
  59 2 1 -0.00537 34.5517125929 4.94886810447 -44.2487467341
  60 2 1 -9.9999 34.3757125929 5.98386810447 -44.6377467341
  61 3 1 9.99487 -0.0850822078736 -0.417177828479 2.59790127822
  62 3 1 -0.00537 -0.640082207874 -1.38217782848 2.47690127822
  63 3 1 0.0 -1.19508220787 -2.34717782848 2.35590127822
  64 3 1 0.0 -1.75008220787 -3.31217782848 2.23490127822
  65 3 1 -0.00537 -2.30508220787 -4.27717782848 2.11390127822
  66 3 1 0.0 -2.86008220787 -5.24217782848 1.99290127822
  67 3 1 0.0 -3.41508220787 -6.20717782848 1.87190127822
  68 3 1 -0.00537 -3.97008220787 -7.17217782848 1.75090127822
  69 3 1 0.0 -4.52508220787 -8.13717782848 1.62990127822
  70 3 1 0.0 -5.08008220787 -9.10217782848 1.50890127822
  71 3 1 -0.00537 -5.63508220787 -10.0671778285 1.38790127822
  72 3 1 0.0 -6.19008220787 -11.0321778285 1.26690127822
  73 3 1 -9.99475 -6.74508220787 -11.9971778285 1.14590127822
  74 3 1 9.99355 -7.30008220787 -12.9621778285 1.02490127822
  75 3 1 0.0 -7.85508220787 -13.9271778285 0.903901278221
  76 3 1 0.0 -8.41008220787 -14.8921778285 0.782901278221
  77 3 1 -0.00537 -8.96508220787 -15.8571778285 0.661901278221
  78 3 1 0.0 -9.52008220787 -16.8221778285 0.540901278221
  79 3 1 0.0 -10.0750822079 -17.7871778285 0.419901278221
  80 3 1 -0.00537 -10.6300822079 -18.7521778285 0.298901278221
  81 3 1 0.0 -11.1850822079 -19.7171778285 0.177901278221
  82 3 1 0.0 -11.7400822079 -20.6821778285 0.0569012782209
  83 3 1 -0.00537 -12.2950822079 -21.6471778285 -0.0640987217791
  84 3 1 0.0 -12.8500822079 -22.6121778285 -0.185098721779
  85 3 1 0.0 -13.4050822079 -23.5771778285 -0.306098721779
  86 3 1 -0.00537 -13.9600822079 -24.5421778285 -0.427098721779
  87 3 1 0.0 -14.5150822079 -25.5071778285 -0.548098721779
  88 3 1 0.0 -15.0700822079 -26.4721778285 -0.669098721779
  89 3 1 -0.00537 -15.6250822079 -27.4371778285 -0.790098721779
  90 3 1 -9.9999 -16.1800822079 -28.4021778285 -0.911098721779
  91 4 1 9.99487 19.8250520065 20.5210838318 22.2617135857
  92 4 1 -0.00537 19.2080520065 21.2980838318 22.7807135857
  93 4 1 0.0 18.5910520065 22.0750838318 23.2997135857
  94 4 1 0.0 17.9740520065 22.8520838318 23.8187135857
  95 4 1 -0.00537 17.3570520065 23.6290838318 24.3377135857
  96 4 1 0.0 16.7400520065 24.4060838318 24.8567135857
  97 4 1 0.0 16.1230520065 25.1830838318 25.3757135857
  98 4 1 -0.00537 15.5060520065 25.9600838318 25.8947135857
  99 4 1 0.0 14.8890520065 26.7370838318 26.4137135857
  100 4 1 0.0 14.2720520065 27.5140838318 26.9327135857
  101 4 1 -0.00537 13.6550520065 28.2910838318 27.4517135857
  102 4 1 0.0 13.0380520065 29.0680838318 27.9707135857
  103 4 1 -9.99475 12.4210520065 29.8450838318 28.4897135857
  104 4 1 9.99355 11.8040520065 30.6220838318 29.0087135857
  105 4 1 0.0 11.1870520065 31.3990838318 29.5277135857
  106 4 1 0.0 10.5700520065 32.1760838318 30.0467135857
  107 4 1 -0.00537 9.95305200654 32.9530838318 30.5657135857
  108 4 1 0.0 9.33605200654 33.7300838318 31.0847135857
  109 4 1 0.0 8.71905200654 34.5070838318 31.6037135857
  110 4 1 -0.00537 8.10205200654 35.2840838318 32.1227135857
  111 4 1 0.0 7.48505200654 36.0610838318 32.6417135857
  112 4 1 0.0 6.86805200654 36.8380838318 33.1607135857
  113 4 1 -0.00537 6.25105200654 37.6150838318 33.6797135857
  114 4 1 0.0 5.63405200654 38.3920838318 34.1987135857
  115 4 1 0.0 5.01705200654 39.1690838318 34.7177135857
  116 4 1 -0.00537 4.40005200654 39.9460838318 35.2367135857
  117 4 1 0.0 3.78305200654 40.7230838318 35.7557135857
  118 4 1 0.0 3.16605200654 41.5000838318 36.2747135857
  119 4 1 -0.00537 2.54905200654 42.2770838318 36.7937135857
  120 4 1 -9.9999 1.93205200654 43.0540838318 37.3127135857
  121 5 1 9.99487 -14.7053041557 -1.72881687318 -11.0255899142
  122 5 1 -0.00537 -13.7753041557 -1.27281687318 -11.4505899142
  123 5 1 0.0 -12.8453041557 -0.816816873179 -11.8755899142
  124 5 1 0.0 -11.9153041557 -0.360816873179 -12.3005899142
  125 5 1 -0.00537 -10.9853041557 0.0951831268212 -12.7255899142
  126 5 1 0.0 -10.0553041557 0.551183126821 -13.1505899142
  127 5 1 0.0 -9.12530415574 1.00718312682 -13.5755899142
  128 5 1 -0.00537 -8.19530415574 1.46318312682 -14.0005899142
  129 5 1 0.0 -7.26530415574 1.91918312682 -14.4255899142
  130 5 1 0.0 -6.33530415574 2.37518312682 -14.8505899142
  131 5 1 -0.00537 -5.40530415574 2.83118312682 -15.2755899142
  132 5 1 0.0 -4.47530415574 3.28718312682 -15.7005899142
  133 5 1 -9.99475 -3.54530415574 3.74318312682 -16.1255899142
  134 5 1 9.99355 -2.61530415574 4.19918312682 -16.5505899142
  135 5 1 0.0 -1.68530415574 4.65518312682 -16.9755899142
  136 5 1 0.0 -0.755304155737 5.11118312682 -17.4005899142
  137 5 1 -0.00537 0.174695844263 5.56718312682 -17.8255899142
  138 5 1 0.0 1.10469584426 6.02318312682 -18.2505899142
  139 5 1 0.0 2.03469584426 6.47918312682 -18.6755899142
  140 5 1 -0.00537 2.96469584426 6.93518312682 -19.1005899142
  141 5 1 0.0 3.89469584426 7.39118312682 -19.5255899142
  142 5 1 0.0 4.82469584426 7.84718312682 -19.9505899142
  143 5 1 -0.00537 5.75469584426 8.30318312682 -20.3755899142
  144 5 1 0.0 6.68469584426 8.75918312682 -20.8005899142
  145 5 1 0.0 7.61469584426 9.21518312682 -21.2255899142
  146 5 1 -0.00537 8.54469584426 9.67118312682 -21.6505899142
  147 5 1 0.0 9.47469584426 10.1271831268 -22.0755899142
  148 5 1 0.0 10.4046958443 10.5831831268 -22.5005899142
  149 5 1 -0.00537 11.3346958443 11.0391831268 -22.9255899142
  150 5 1 -9.9999 12.2646958443 11.4951831268 -23.3505899142
  151 6 1 9.99487 -6.72608393447 -1.87185412057 -24.0192883776
  152 6 1 -0.00537 -5.61408393447 -1.93985412057 -24.1302883776
  153 6 1 0.0 -4.50208393447 -2.00785412057 -24.2412883776
  154 6 1 0.0 -3.39008393447 -2.07585412057 -24.3522883776
  155 6 1 -0.00537 -2.27808393447 -2.14385412057 -24.4632883776
  156 6 1 0.0 -1.16608393447 -2.21185412057 -24.5742883776
  157 6 1 0.0 -0.054083934468 -2.27985412057 -24.6852883776
  158 6 1 -0.00537 1.05791606553 -2.34785412057 -24.7962883776
  159 6 1 0.0 2.16991606553 -2.41585412057 -24.9072883776
  160 6 1 0.0 3.28191606553 -2.48385412057 -25.0182883776
  161 6 1 -0.00537 4.39391606553 -2.55185412057 -25.1292883776
  162 6 1 0.0 5.50591606553 -2.61985412057 -25.2402883776
  163 6 1 -9.99475 6.61791606553 -2.68785412057 -25.3512883776
  164 6 1 9.99355 7.72991606553 -2.75585412057 -25.4622883776
  165 6 1 0.0 8.84191606553 -2.82385412057 -25.5732883776
  166 6 1 0.0 9.95391606553 -2.89185412057 -25.6842883776
  167 6 1 -0.00537 11.0659160655 -2.95985412057 -25.7952883776
  168 6 1 0.0 12.1779160655 -3.02785412057 -25.9062883776
  169 6 1 0.0 13.2899160655 -3.09585412057 -26.0172883776
  170 6 1 -0.00537 14.4019160655 -3.16385412057 -26.1282883776
  171 6 1 0.0 15.5139160655 -3.23185412057 -26.2392883776
  172 6 1 0.0 16.6259160655 -3.29985412057 -26.3502883776
  173 6 1 -0.00537 17.7379160655 -3.36785412057 -26.4612883776
  174 6 1 0.0 18.8499160655 -3.43585412057 -26.5722883776
  175 6 1 0.0 19.9619160655 -3.50385412057 -26.6832883776
  176 6 1 -0.00537 21.0739160655 -3.57185412057 -26.7942883776
  177 6 1 0.0 22.1859160655 -3.63985412057 -26.9052883776
  178 6 1 0.0 23.2979160655 -3.70785412057 -27.0162883776
  179 6 1 -0.00537 24.4099160655 -3.77585412057 -27.1272883776
  180 6 1 -9.9999 25.5219160655 -3.84385412057 -27.2382883776
  181 7 1 9.99487 -15.5018994904 -26.0982874401 27.670735238
  182 7 1 -0.00537 -15.9398994904 -25.9412874401 26.651735238
  183 7 1 0.0 -16.3778994904 -25.7842874401 25.632735238
  184 7 1 0.0 -16.8158994904 -25.6272874401 24.613735238
  185 7 1 -0.00537 -17.2538994904 -25.4702874401 23.594735238
  186 7 1 0.0 -17.6918994904 -25.3132874401 22.575735238
  187 7 1 0.0 -18.1298994904 -25.1562874401 21.556735238
  188 7 1 -0.00537 -18.5678994904 -24.9992874401 20.537735238
  189 7 1 0.0 -19.0058994904 -24.8422874401 19.518735238
  190 7 1 0.0 -19.4438994904 -24.6852874401 18.499735238
  191 7 1 -0.00537 -19.8818994904 -24.5282874401 17.480735238
  192 7 1 0.0 -20.3198994904 -24.3712874401 16.461735238
  193 7 1 -9.99475 -20.7578994904 -24.2142874401 15.442735238
  194 7 1 9.99355 -21.1958994904 -24.0572874401 14.423735238
  195 7 1 0.0 -21.6338994904 -23.9002874401 13.404735238
  196 7 1 0.0 -22.0718994904 -23.7432874401 12.385735238
  197 7 1 -0.00537 -22.5098994904 -23.5862874401 11.366735238
  198 7 1 0.0 -22.9478994904 -23.4292874401 10.347735238
  199 7 1 0.0 -23.3858994904 -23.2722874401 9.32873523797
  200 7 1 -0.00537 -23.8238994904 -23.1152874401 8.30973523797
  201 7 1 0.0 -24.2618994904 -22.9582874401 7.29073523797
  202 7 1 0.0 -24.6998994904 -22.8012874401 6.27173523797
  203 7 1 -0.00537 -25.1378994904 -22.6442874401 5.25273523797
  204 7 1 0.0 -25.5758994904 -22.4872874401 4.23373523797
  205 7 1 0.0 -26.0138994904 -22.3302874401 3.21473523797
  206 7 1 -0.00537 -26.4518994904 -22.1732874401 2.19573523797
  207 7 1 0.0 -26.8898994904 -22.0162874401 1.17673523797
  208 7 1 0.0 -27.3278994904 -21.8592874401 0.157735237974
  209 7 1 -0.00537 -27.7658994904 -21.7022874401 -0.861264762026
  210 7 1 -9.9999 -28.2038994904 -21.5452874401 -1.88026476203
  211 8 1 9.99487 17.4075713773 -28.3745585733 -1.45870484836
  212 8 1 -0.00537 18.2705713773 -28.5855585733 -2.13970484836
  213 8 1 0.0 19.1335713773 -28.7965585733 -2.82070484836
  214 8 1 0.0 19.9965713773 -29.0075585733 -3.50170484836
  215 8 1 -0.00537 20.8595713773 -29.2185585733 -4.18270484836
  216 8 1 0.0 21.7225713773 -29.4295585733 -4.86370484836
  217 8 1 0.0 22.5855713773 -29.6405585733 -5.54470484836
  218 8 1 -0.00537 23.4485713773 -29.8515585733 -6.22570484836
  219 8 1 0.0 24.3115713773 -30.0625585733 -6.90670484836
  220 8 1 0.0 25.1745713773 -30.2735585733 -7.58770484836
  221 8 1 -0.00537 26.0375713773 -30.4845585733 -8.26870484836
  222 8 1 0.0 26.9005713773 -30.6955585733 -8.94970484836
  223 8 1 -9.99475 27.7635713773 -30.9065585733 -9.63070484836
  224 8 1 9.99355 28.6265713773 -31.1175585733 -10.3117048484
  225 8 1 0.0 29.4895713773 -31.3285585733 -10.9927048484
  226 8 1 0.0 30.3525713773 -31.5395585733 -11.6737048484
  227 8 1 -0.00537 31.2155713773 -31.7505585733 -12.3547048484
  228 8 1 0.0 32.0785713773 -31.9615585733 -13.0357048484
  229 8 1 0.0 32.9415713773 -32.1725585733 -13.7167048484
  230 8 1 -0.00537 33.8045713773 -32.3835585733 -14.3977048484
  231 8 1 0.0 34.6675713773 -32.5945585733 -15.0787048484
  232 8 1 0.0 35.5305713773 -32.8055585733 -15.7597048484
  233 8 1 -0.00537 36.3935713773 -33.0165585733 -16.4407048484
  234 8 1 0.0 37.2565713773 -33.2275585733 -17.1217048484
  235 8 1 0.0 38.1195713773 -33.4385585733 -17.8027048484
  236 8 1 -0.00537 38.9825713773 -33.6495585733 -18.4837048484
  237 8 1 0.0 39.8455713773 -33.8605585733 -19.1647048484
  238 8 1 0.0 40.7085713773 -34.0715585733 -19.8457048484
  239 8 1 -0.00537 41.5715713773 -34.2825585733 -20.5267048484
  240 8 1 -9.9999 42.4345713773 -34.4935585733 -21.2077048484
  241 9 1 9.99487 34.4100767678 34.5944708556 48.3115121659
  242 9 1 -0.00537 35.0980767678 33.9214708556 47.7385121659
  243 9 1 0.0 35.7860767678 33.2484708556 47.1655121659
  244 9 1 0.0 36.4740767678 32.5754708556 46.5925121659
  245 9 1 -0.00537 37.1620767678 31.9024708556 46.0195121659
  246 9 1 0.0 37.8500767678 31.2294708556 45.4465121659
  247 9 1 0.0 38.5380767678 30.5564708556 44.8735121659
  248 9 1 -0.00537 39.2260767678 29.8834708556 44.3005121659
  249 9 1 0.0 39.9140767678 29.2104708556 43.7275121659
  250 9 1 0.0 40.6020767678 28.5374708556 43.1545121659
  251 9 1 -0.00537 41.2900767678 27.8644708556 42.5815121659
  252 9 1 0.0 41.9780767678 27.1914708556 42.0085121659
  253 9 1 -9.99475 42.6660767678 26.5184708556 41.4355121659
  254 9 1 9.99355 43.3540767678 25.8454708556 40.8625121659
  255 9 1 0.0 44.0420767678 25.1724708556 40.2895121659
  256 9 1 0.0 44.7300767678 24.4994708556 39.7165121659
  257 9 1 -0.00537 45.4180767678 23.8264708556 39.1435121659
  258 9 1 0.0 46.1060767678 23.1534708556 38.5705121659
  259 9 1 0.0 46.7940767678 22.4804708556 37.9975121659
  260 9 1 -0.00537 47.4820767678 21.8074708556 37.4245121659
  261 9 1 0.0 48.1700767678 21.1344708556 36.8515121659
  262 9 1 0.0 48.8580767678 20.4614708556 36.2785121659
  263 9 1 -0.00537 49.5460767678 19.7884708556 35.7055121659
  264 9 1 0.0 50.2340767678 19.1154708556 35.1325121659
  265 9 1 0.0 50.9220767678 18.4424708556 34.5595121659
  266 9 1 -0.00537 51.6100767678 17.7694708556 33.9865121659
  267 9 1 0.0 52.2980767678 17.0964708556 33.4135121659
  268 9 1 0.0 52.9860767678 16.4234708556 32.8405121659
  269 9 1 -0.00537 53.6740767678 15.7504708556 32.2675121659
  270 9 1 -9.9999 54.3620767678 15.0774708556 31.6945121659
  271 10 1 9.99487 -45.7855279097 -23.6004280197 -47.2581146818
  272 10 1 -0.00537 -46.5885279097 -23.8194280197 -48.0071146818
  273 10 1 0.0 -47.3915279097 -24.0384280197 -48.7561146818
  274 10 1 0.0 -48.1945279097 -24.2574280197 -49.5051146818
  275 10 1 -0.00537 -48.9975279097 -24.4764280197 -50.2541146818
  276 10 1 0.0 -49.8005279097 -24.6954280197 -51.0031146818
  277 10 1 0.0 -50.6035279097 -24.9144280197 -51.7521146818
  278 10 1 -0.00537 -51.4065279097 -25.1334280197 -52.5011146818
  279 10 1 0.0 -52.2095279097 -25.3524280197 -53.2501146818
  280 10 1 0.0 -53.0125279097 -25.5714280197 -53.9991146818
  281 10 1 -0.00537 -53.8155279097 -25.7904280197 -54.7481146818
  282 10 1 0.0 -54.6185279097 -26.0094280197 -55.4971146818
  283 10 1 -9.99475 -55.4215279097 -26.2284280197 -56.2461146818
  284 10 1 9.99355 -56.2245279097 -26.4474280197 -56.9951146818
  285 10 1 0.0 -57.0275279097 -26.6664280197 -57.7441146818
  286 10 1 0.0 -57.8305279097 -26.8854280197 -58.4931146818
  287 10 1 -0.00537 -58.6335279097 -27.1044280197 -59.2421146818
  288 10 1 0.0 -59.4365279097 -27.3234280197 -59.9911146818
  289 10 1 0.0 -60.2395279097 -27.5424280197 -60.7401146818
  290 10 1 -0.00537 -61.0425279097 -27.7614280197 -61.4891146818
  291 10 1 0.0 -61.8455279097 -27.9804280197 -62.2381146818
  292 10 1 0.0 -62.6485279097 -28.1994280197 -62.9871146818
  293 10 1 -0.00537 -63.4515279097 -28.4184280197 -63.7361146818
  294 10 1 0.0 -64.2545279097 -28.6374280197 -64.4851146818
  295 10 1 0.0 -65.0575279097 -28.8564280197 -65.2341146818
  296 10 1 -0.00537 -65.8605279097 -29.0754280197 -65.9831146818
  297 10 1 0.0 -66.6635279097 -29.2944280197 -66.7321146818
  298 10 1 0.0 -67.4665279097 -29.5134280197 -67.4811146818
  299 10 1 -0.00537 -68.2695279097 -29.7324280197 -68.2301146818
  300 10 1 -9.9999 -69.0725279097 -29.9514280197 -68.9791146818
  301 11 1 9.99487 48.0262950565 22.4658543411 -23.0470111716
  302 11 1 -0.00537 48.4022950565 23.5148543411 -22.9320111716
  303 11 1 0.0 48.7782950565 24.5638543411 -22.8170111716
  304 11 1 0.0 49.1542950565 25.6128543411 -22.7020111716
  305 11 1 -0.00537 49.5302950565 26.6618543411 -22.5870111716
  306 11 1 0.0 49.9062950565 27.7108543411 -22.4720111716
  307 11 1 0.0 50.2822950565 28.7598543411 -22.3570111716
  308 11 1 -0.00537 50.6582950565 29.8088543411 -22.2420111716
  309 11 1 0.0 51.0342950565 30.8578543411 -22.1270111716
  310 11 1 0.0 51.4102950565 31.9068543411 -22.0120111716
  311 11 1 -0.00537 51.7862950565 32.9558543411 -21.8970111716
  312 11 1 0.0 52.1622950565 34.0048543411 -21.7820111716
  313 11 1 -9.99475 52.5382950565 35.0538543411 -21.6670111716
  314 11 1 9.99355 52.9142950565 36.1028543411 -21.5520111716
  315 11 1 0.0 53.2902950565 37.1518543411 -21.4370111716
  316 11 1 0.0 53.6662950565 38.2008543411 -21.3220111716
  317 11 1 -0.00537 54.0422950565 39.2498543411 -21.2070111716
  318 11 1 0.0 54.4182950565 40.2988543411 -21.0920111716
  319 11 1 0.0 54.7942950565 41.3478543411 -20.9770111716
  320 11 1 -0.00537 55.1702950565 42.3968543411 -20.8620111716
  321 11 1 0.0 55.5462950565 43.4458543411 -20.7470111716
  322 11 1 0.0 55.9222950565 44.4948543411 -20.6320111716
  323 11 1 -0.00537 56.2982950565 45.5438543411 -20.5170111716
  324 11 1 0.0 56.6742950565 46.5928543411 -20.4020111716
  325 11 1 0.0 57.0502950565 47.6418543411 -20.2870111716
  326 11 1 -0.00537 57.4262950565 48.6908543411 -20.1720111716
  327 11 1 0.0 57.8022950565 49.7398543411 -20.0570111716
  328 11 1 0.0 58.1782950565 50.7888543411 -19.9420111716
  329 11 1 -0.00537 58.5542950565 51.8378543411 -19.8270111716
  330 11 1 -9.9999 58.9302950565 52.8868543411 -19.7120111716
  331 12 1 9.99487 -3.39997232032 -26.8856696108 0.930571782234
  332 12 1 -0.00537 -4.16297232032 -27.5946696108 1.34357178223
  333 12 1 0.0 -4.92597232032 -28.3036696108 1.75657178223
  334 12 1 0.0 -5.68897232032 -29.0126696108 2.16957178223
  335 12 1 -0.00537 -6.45197232032 -29.7216696108 2.58257178223
  336 12 1 0.0 -7.21497232032 -30.4306696108 2.99557178223
  337 12 1 0.0 -7.97797232032 -31.1396696108 3.40857178223
  338 12 1 -0.00537 -8.74097232032 -31.8486696108 3.82157178223
  339 12 1 0.0 -9.50397232032 -32.5576696108 4.23457178223
  340 12 1 0.0 -10.2669723203 -33.2666696108 4.64757178223
  341 12 1 -0.00537 -11.0299723203 -33.9756696108 5.06057178223
  342 12 1 0.0 -11.7929723203 -34.6846696108 5.47357178223
  343 12 1 -9.99475 -12.5559723203 -35.3936696108 5.88657178223
  344 12 1 9.99355 -13.3189723203 -36.1026696108 6.29957178223
  345 12 1 0.0 -14.0819723203 -36.8116696108 6.71257178223
  346 12 1 0.0 -14.8449723203 -37.5206696108 7.12557178223
  347 12 1 -0.00537 -15.6079723203 -38.2296696108 7.53857178223
  348 12 1 0.0 -16.3709723203 -38.9386696108 7.95157178223
  349 12 1 0.0 -17.1339723203 -39.6476696108 8.36457178223
  350 12 1 -0.00537 -17.8969723203 -40.3566696108 8.77757178223
  351 12 1 0.0 -18.6599723203 -41.0656696108 9.19057178223
  352 12 1 0.0 -19.4229723203 -41.7746696108 9.60357178223
  353 12 1 -0.00537 -20.1859723203 -42.4836696108 10.0165717822
  354 12 1 0.0 -20.9489723203 -43.1926696108 10.4295717822
  355 12 1 0.0 -21.7119723203 -43.9016696108 10.8425717822
  356 12 1 -0.00537 -22.4749723203 -44.6106696108 11.2555717822
  357 12 1 0.0 -23.2379723203 -45.3196696108 11.6685717822
  358 12 1 0.0 -24.0009723203 -46.0286696108 12.0815717822
  359 12 1 -0.00537 -24.7639723203 -46.7376696108 12.4945717822
  360 12 1 -9.9999 -25.5269723203 -47.4466696108 12.9075717822
  361 13 1 9.99487 -3.26864789542 17.2261202416 -45.152152516
  362 13 1 -0.00537 -2.59364789542 16.6121202416 -44.503152516
  363 13 1 0.0 -1.91864789542 15.9981202416 -43.854152516
  364 13 1 0.0 -1.24364789542 15.3841202416 -43.205152516
  365 13 1 -0.00537 -0.568647895418 14.7701202416 -42.556152516
  366 13 1 0.0 0.106352104582 14.1561202416 -41.907152516
  367 13 1 0.0 0.781352104582 13.5421202416 -41.258152516
  368 13 1 -0.00537 1.45635210458 12.9281202416 -40.609152516
  369 13 1 0.0 2.13135210458 12.3141202416 -39.960152516
  370 13 1 0.0 2.80635210458 11.7001202416 -39.311152516
  371 13 1 -0.00537 3.48135210458 11.0861202416 -38.662152516
  372 13 1 0.0 4.15635210458 10.4721202416 -38.013152516
  373 13 1 -9.99475 4.83135210458 9.85812024163 -37.364152516
  374 13 1 9.99355 5.50635210458 9.24412024163 -36.715152516
  375 13 1 0.0 6.18135210458 8.63012024163 -36.066152516
  376 13 1 0.0 6.85635210458 8.01612024163 -35.417152516
  377 13 1 -0.00537 7.53135210458 7.40212024163 -34.768152516
  378 13 1 0.0 8.20635210458 6.78812024163 -34.119152516
  379 13 1 0.0 8.88135210458 6.17412024163 -33.470152516
  380 13 1 -0.00537 9.55635210458 5.56012024163 -32.821152516
  381 13 1 0.0 10.2313521046 4.94612024163 -32.172152516
  382 13 1 0.0 10.9063521046 4.33212024163 -31.523152516
  383 13 1 -0.00537 11.5813521046 3.71812024163 -30.874152516
  384 13 1 0.0 12.2563521046 3.10412024163 -30.225152516
  385 13 1 0.0 12.9313521046 2.49012024163 -29.576152516
  386 13 1 -0.00537 13.6063521046 1.87612024163 -28.927152516
  387 13 1 0.0 14.2813521046 1.26212024163 -28.278152516
  388 13 1 0.0 14.9563521046 0.648120241625 -27.629152516
  389 13 1 -0.00537 15.6313521046 0.0341202416252 -26.980152516
  390 13 1 -9.9999 16.3063521046 -0.579879758375 -26.331152516
  391 14 1 9.99487 37.4042416366 39.7405664257 12.4176004742
  392 14 1 -0.00537 37.6612416366 38.7175664257 12.0406004742
  393 14 1 0.0 37.9182416366 37.6945664257 11.6636004742
  394 14 1 0.0 38.1752416366 36.6715664257 11.2866004742
  395 14 1 -0.00537 38.4322416366 35.6485664257 10.9096004742
  396 14 1 0.0 38.6892416366 34.6255664257 10.5326004742
  397 14 1 0.0 38.9462416366 33.6025664257 10.1556004742
  398 14 1 -0.00537 39.2032416366 32.5795664257 9.77860047425
  399 14 1 0.0 39.4602416366 31.5565664257 9.40160047425
  400 14 1 0.0 39.7172416366 30.5335664257 9.02460047425
  401 14 1 -0.00537 39.9742416366 29.5105664257 8.64760047425
  402 14 1 0.0 40.2312416366 28.4875664257 8.27060047425
  403 14 1 -9.99475 40.4882416366 27.4645664257 7.89360047425
  404 14 1 9.99355 40.7452416366 26.4415664257 7.51660047425
  405 14 1 0.0 41.0022416366 25.4185664257 7.13960047425
  406 14 1 0.0 41.2592416366 24.3955664257 6.76260047425
  407 14 1 -0.00537 41.5162416366 23.3725664257 6.38560047425
  408 14 1 0.0 41.7732416366 22.3495664257 6.00860047425
  409 14 1 0.0 42.0302416366 21.3265664257 5.63160047425
  410 14 1 -0.00537 42.2872416366 20.3035664257 5.25460047425
  411 14 1 0.0 42.5442416366 19.2805664257 4.87760047425
  412 14 1 0.0 42.8012416366 18.2575664257 4.50060047425
  413 14 1 -0.00537 43.0582416366 17.2345664257 4.12360047425
  414 14 1 0.0 43.3152416366 16.2115664257 3.74660047425
  415 14 1 0.0 43.5722416366 15.1885664257 3.36960047425
  416 14 1 -0.00537 43.8292416366 14.1655664257 2.99260047425
  417 14 1 0.0 44.0862416366 13.1425664257 2.61560047425
  418 14 1 0.0 44.3432416366 12.1195664257 2.23860047425
  419 14 1 -0.00537 44.6002416366 11.0965664257 1.86160047425
  420 14 1 -9.9999 44.8572416366 10.0735664257 1.48460047425
  421 15 1 9.99487 23.4875342581 -3.93737628197 -10.5525569584
  422 15 1 -0.00537 24.2475342581 -4.32237628197 -9.82555695844
  423 15 1 0.0 25.0075342581 -4.70737628197 -9.09855695844
  424 15 1 0.0 25.7675342581 -5.09237628197 -8.37155695844
  425 15 1 -0.00537 26.5275342581 -5.47737628197 -7.64455695844
  426 15 1 0.0 27.2875342581 -5.86237628197 -6.91755695844
  427 15 1 0.0 28.0475342581 -6.24737628197 -6.19055695844
  428 15 1 -0.00537 28.8075342581 -6.63237628197 -5.46355695844
  429 15 1 0.0 29.5675342581 -7.01737628197 -4.73655695844
  430 15 1 0.0 30.3275342581 -7.40237628197 -4.00955695844
  431 15 1 -0.00537 31.0875342581 -7.78737628197 -3.28255695844
  432 15 1 0.0 31.8475342581 -8.17237628197 -2.55555695844
  433 15 1 -9.99475 32.6075342581 -8.55737628197 -1.82855695844
  434 15 1 9.99355 33.3675342581 -8.94237628197 -1.10155695844
  435 15 1 0.0 34.1275342581 -9.32737628197 -0.37455695844
  436 15 1 0.0 34.8875342581 -9.71237628197 0.35244304156
  437 15 1 -0.00537 35.6475342581 -10.097376282 1.07944304156
  438 15 1 0.0 36.4075342581 -10.482376282 1.80644304156
  439 15 1 0.0 37.1675342581 -10.867376282 2.53344304156
  440 15 1 -0.00537 37.9275342581 -11.252376282 3.26044304156
  441 15 1 0.0 38.6875342581 -11.637376282 3.98744304156
  442 15 1 0.0 39.4475342581 -12.022376282 4.71444304156
  443 15 1 -0.00537 40.2075342581 -12.407376282 5.44144304156
  444 15 1 0.0 40.9675342581 -12.792376282 6.16844304156
  445 15 1 0.0 41.7275342581 -13.177376282 6.89544304156
  446 15 1 -0.00537 42.4875342581 -13.562376282 7.62244304156
  447 15 1 0.0 43.2475342581 -13.947376282 8.34944304156
  448 15 1 0.0 44.0075342581 -14.332376282 9.07644304156
  449 15 1 -0.00537 44.7675342581 -14.717376282 9.80344304156
  450 15 1 -9.9999 45.5275342581 -15.102376282 10.5304430416
  451 16 1 9.99487 -45.3281547139 0.917023835271 36.7256684524
  452 16 1 -0.00537 -44.5631547139 0.949023835271 35.9076684524
  453 16 1 0.0 -43.7981547139 0.981023835271 35.0896684524
  454 16 1 0.0 -43.0331547139 1.01302383527 34.2716684524
  455 16 1 -0.00537 -42.2681547139 1.04502383527 33.4536684524
  456 16 1 0.0 -41.5031547139 1.07702383527 32.6356684524
  457 16 1 0.0 -40.7381547139 1.10902383527 31.8176684524
  458 16 1 -0.00537 -39.9731547139 1.14102383527 30.9996684524
  459 16 1 0.0 -39.2081547139 1.17302383527 30.1816684524
  460 16 1 0.0 -38.4431547139 1.20502383527 29.3636684524
  461 16 1 -0.00537 -37.6781547139 1.23702383527 28.5456684524
  462 16 1 0.0 -36.9131547139 1.26902383527 27.7276684524
  463 16 1 -9.99475 -36.1481547139 1.30102383527 26.9096684524
  464 16 1 9.99355 -35.3831547139 1.33302383527 26.0916684524
  465 16 1 0.0 -34.6181547139 1.36502383527 25.2736684524
  466 16 1 0.0 -33.8531547139 1.39702383527 24.4556684524
  467 16 1 -0.00537 -33.0881547139 1.42902383527 23.6376684524
  468 16 1 0.0 -32.3231547139 1.46102383527 22.8196684524
  469 16 1 0.0 -31.5581547139 1.49302383527 22.0016684524
  470 16 1 -0.00537 -30.7931547139 1.52502383527 21.1836684524
  471 16 1 0.0 -30.0281547139 1.55702383527 20.3656684524
  472 16 1 0.0 -29.2631547139 1.58902383527 19.5476684524
  473 16 1 -0.00537 -28.4981547139 1.62102383527 18.7296684524
  474 16 1 0.0 -27.7331547139 1.65302383527 17.9116684524
  475 16 1 0.0 -26.9681547139 1.68502383527 17.0936684524
  476 16 1 -0.00537 -26.2031547139 1.71702383527 16.2756684524
  477 16 1 0.0 -25.4381547139 1.74902383527 15.4576684524
  478 16 1 0.0 -24.6731547139 1.78102383527 14.6396684524
  479 16 1 -0.00537 -23.9081547139 1.81302383527 13.8216684524
  480 16 1 -9.9999 -23.1431547139 1.84502383527 13.0036684524
  481 17 1 9.99487 22.3376959172 -18.872875207 -24.8204706452
  482 17 1 -0.00537 22.8656959172 -18.532875207 -25.7484706452
  483 17 1 0.0 23.3936959172 -18.192875207 -26.6764706452
  484 17 1 0.0 23.9216959172 -17.852875207 -27.6044706452
  485 17 1 -0.00537 24.4496959172 -17.512875207 -28.5324706452
  486 17 1 0.0 24.9776959172 -17.172875207 -29.4604706452
  487 17 1 0.0 25.5056959172 -16.832875207 -30.3884706452
  488 17 1 -0.00537 26.0336959172 -16.492875207 -31.3164706452
  489 17 1 0.0 26.5616959172 -16.152875207 -32.2444706452
  490 17 1 0.0 27.0896959172 -15.812875207 -33.1724706452
  491 17 1 -0.00537 27.6176959172 -15.472875207 -34.1004706452
  492 17 1 0.0 28.1456959172 -15.132875207 -35.0284706452
  493 17 1 -9.99475 28.6736959172 -14.792875207 -35.9564706452
  494 17 1 9.99355 29.2016959172 -14.452875207 -36.8844706452
  495 17 1 0.0 29.7296959172 -14.112875207 -37.8124706452
  496 17 1 0.0 30.2576959172 -13.772875207 -38.7404706452
  497 17 1 -0.00537 30.7856959172 -13.432875207 -39.6684706452
  498 17 1 0.0 31.3136959172 -13.092875207 -40.5964706452
  499 17 1 0.0 31.8416959172 -12.752875207 -41.5244706452