LAMMPS CONFIG FILE

  3000 atoms
  0 bonds
  0 angles

  1 atom types
  0 bond types
  0 angle types

  -50  50 xlo xhi
  -50  50 ylo yhi
  -50  50 zlo zhi

Masses

  1 1.0

Atoms

  1 0 1 9.99487 31.7882957969 -8.26216946813 16.1816103798
  2 0 1 -0.00537 32.0532957969 -9.14416946813 15.5446103798
  3 0 1 0.0 32.3182957969 -10.0261694681 14.9076103798
  4 0 1 0.0 32.5832957969 -10.9081694681 14.2706103798
  5 0 1 -0.00537 32.8482957969 -11.7901694681 13.6336103798
  6 0 1 0.0 33.1132957969 -12.6721694681 12.9966103798
  7 0 1 0.0 33.3782957969 -13.5541694681 12.3596103798
  8 0 1 -0.00537 33.6432957969 -14.4361694681 11.7226103798
  9 0 1 0.0 33.9082957969 -15.3181694681 11.0856103798
  10 0 1 0.0 34.1732957969 -16.2001694681 10.4486103798
  11 0 1 -0.00537 34.4382957969 -17.0821694681 9.81161037984
  12 0 1 0.0 34.7032957969 -17.9641694681 9.17461037984
  13 0 1 -9.99475 34.9682957969 -18.8461694681 8.53761037984
  14 0 1 9.99355 35.2332957969 -19.7281694681 7.90061037984
  15 0 1 0.0 35.4982957969 -20.6101694681 7.26361037984
  16 0 1 0.0 35.7632957969 -21.4921694681 6.62661037984
  17 0 1 -0.00537 36.0282957969 -22.3741694681 5.98961037984
  18 0 1 0.0 36.2932957969 -23.2561694681 5.35261037984
  19 0 1 0.0 36.5582957969 -24.1381694681 4.71561037984
  20 0 1 -0.00537 36.8232957969 -25.0201694681 4.07861037984
  21 0 1 0.0 37.0882957969 -25.9021694681 3.44161037984
  22 0 1 0.0 37.3532957969 -26.7841694681 2.80461037984
  23 0 1 -0.00537 37.6182957969 -27.6661694681 2.16761037984
  24 0 1 0.0 37.8832957969 -28.5481694681 1.53061037984
  25 0 1 0.0 38.1482957969 -29.4301694681 0.893610379837
  26 0 1 -0.00537 38.4132957969 -30.3121694681 0.256610379837
  27 0 1 0.0 38.6782957969 -31.1941694681 -0.380389620163
  28 0 1 0.0 38.9432957969 -32.0761694681 -1.01738962016
  29 0 1 -0.00537 39.2082957969 -32.9581694681 -1.65438962016
  30 0 1 -9.9999 39.4732957969 -33.8401694681 -2.29138962016
  31 1 1 9.99487 -20.5117489123 48.4486759421 -16.8209116231
  32 1 1 -0.00537 -20.0827489123 49.3616759421 -16.3349116231
  33 1 1 0.0 -19.6537489123 50.2746759421 -15.8489116231
  34 1 1 0.0 -19.2247489123 51.1876759421 -15.3629116231
  35 1 1 -0.00537 -18.7957489123 52.1006759421 -14.8769116231
  36 1 1 0.0 -18.3667489123 53.0136759421 -14.3909116231
  37 1 1 0.0 -17.9377489123 53.9266759421 -13.9049116231
  38 1 1 -0.00537 -17.5087489123 54.8396759421 -13.4189116231
  39 1 1 0.0 -17.0797489123 55.7526759421 -12.9329116231
  40 1 1 0.0 -16.6507489123 56.6656759421 -12.4469116231
  41 1 1 -0.00537 -16.2217489123 57.5786759421 -11.9609116231
  42 1 1 0.0 -15.7927489123 58.4916759421 -11.4749116231
  43 1 1 -9.99475 -15.3637489123 59.4046759421 -10.9889116231
  44 1 1 9.99355 -14.9347489123 60.3176759421 -10.5029116231
  45 1 1 0.0 -14.5057489123 61.2306759421 -10.0169116231
  46 1 1 0.0 -14.0767489123 62.1436759421 -9.53091162307
  47 1 1 -0.00537 -13.6477489123 63.0566759421 -9.04491162307
  48 1 1 0.0 -13.2187489123 63.9696759421 -8.55891162307
  49 1 1 0.0 -12.7897489123 64.8826759421 -8.07291162307
  50 1 1 -0.00537 -12.3607489123 65.7956759421 -7.58691162307
  51 1 1 0.0 -11.9317489123 66.7086759421 -7.10091162307
  52 1 1 0.0 -11.5027489123 67.6216759421 -6.61491162307
  53 1 1 -0.00537 -11.0737489123 68.5346759421 -6.12891162307
  54 1 1 0.0 -10.6447489123 69.4476759421 -5.64291162307
  55 1 1 0.0 -10.2157489123 70.3606759421 -5.15691162307
  56 1 1 -0.00537 -9.78674891226 71.2736759421 -4.67091162307
  57 1 1 0.0 -9.35774891226 72.1866759421 -4.18491162307
  58 1 1 0.0 -8.92874891226 73.0996759421 -3.69891162307
  59 1 1 -0.00537 -8.49974891226 74.0126759421 -3.21291162307
  60 1 1 -9.9999 -8.07074891226 74.9256759421 -2.72691162307
  61 2 1 9.99487 40.3237318031 21.5011684687 -9.41282998366
  62 2 1 -0.00537 41.2057318031 22.1621684687 -9.61282998366
  63 2 1 0.0 42.0877318031 22.8231684687 -9.81282998366
  64 2 1 0.0 42.9697318031 23.4841684687 -10.0128299837
  65 2 1 -0.00537 43.8517318031 24.1451684687 -10.2128299837
  66 2 1 0.0 44.7337318031 24.8061684687 -10.4128299837
  67 2 1 0.0 45.6157318031 25.4671684687 -10.6128299837
  68 2 1 -0.00537 46.4977318031 26.1281684687 -10.8128299837
  69 2 1 0.0 47.3797318031 26.7891684687 -11.0128299837
  70 2 1 0.0 48.2617318031 27.4501684687 -11.2128299837
  71 2 1 -0.00537 49.1437318031 28.1111684687 -11.4128299837
  72 2 1 0.0 50.0257318031 28.7721684687 -11.6128299837
  73 2 1 -9.99475 50.9077318031 29.4331684687 -11.8128299837
  74 2 1 9.99355 51.7897318031 30.0941684687 -12.0128299837
  75 2 1 0.0 52.6717318031 30.7551684687 -12.2128299837
  76 2 1 0.0 53.5537318031 31.4161684687 -12.4128299837
  77 2 1 -0.00537 54.4357318031 32.0771684687 -12.6128299837
  78 2 1 0.0 55.3177318031 32.7381684687 -12.8128299837
  79 2 1 0.0 56.1997318031 33.3991684687 -13.0128299837
  80 2 1 -0.00537 57.0817318031 34.0601684687 -13.2128299837
  81 2 1 0.0 57.9637318031 34.7211684687 -13.4128299837
  82 2 1 0.0 58.8457318031 35.3821684687 -13.6128299837
  83 2 1 -0.00537 59.7277318031 36.0431684687 -13.8128299837
  84 2 1 0.0 60.6097318031 36.7041684687 -14.0128299837
  85 2 1 0.0 61.4917318031 37.3651684687 -14.2128299837
  86 2 1 -0.00537 62.3737318031 38.0261684687 -14.4128299837
  87 2 1 0.0 63.2557318031 38.6871684687 -14.6128299837
  88 2 1 0.0 64.1377318031 39.3481684687 -14.8128299837
  89 2 1 -0.00537 65.0197318031 40.0091684687 -15.0128299837
  90 2 1 -9.9999 65.9017318031 40.6701684687 -15.2128299837
  91 3 1 9.99487 6.68872061039 -4.44206091614 48.4281975343
  92 3 1 -0.00537 7.12272061039 -3.58706091614 49.0071975343
  93 3 1 0.0 7.55672061039 -2.73206091614 49.5861975343
  94 3 1 0.0 7.99072061039 -1.87706091614 50.1651975343
  95 3 1 -0.00537 8.42472061039 -1.02206091614 50.7441975343
  96 3 1 0.0 8.85872061039 -0.167060916136 51.3231975343
  97 3 1 0.0 9.29272061039 0.687939083864 51.9021975343
  98 3 1 -0.00537 9.72672061039 1.54293908386 52.4811975343
  99 3 1 0.0 10.1607206104 2.39793908386 53.0601975343
  100 3 1 0.0 10.5947206104 3.25293908386 53.6391975343
  101 3 1 -0.00537 11.0287206104 4.10793908386 54.2181975343
  102 3 1 0.0 11.4627206104 4.96293908386 54.7971975343
  103 3 1 -9.99475 11.8967206104 5.81793908386 55.3761975343
  104 3 1 9.99355 12.3307206104 6.67293908386 55.9551975343
  105 3 1 0.0 12.7647206104 7.52793908386 56.5341975343
  106 3 1 0.0 13.1987206104 8.38293908386 57.1131975343
  107 3 1 -0.00537 13.6327206104 9.23793908386 57.6921975343
  108 3 1 0.0 14.0667206104 10.0929390839 58.2711975343
  109 3 1 0.0 14.5007206104 10.9479390839 58.8501975343
  110 3 1 -0.00537 14.9347206104 11.8029390839 59.4291975343
  111 3 1 0.0 15.3687206104 12.6579390839 60.0081975343
  112 3 1 0.0 15.8027206104 13.5129390839 60.5871975343
  113 3 1 -0.00537 16.2367206104 14.3679390839 61.1661975343
  114 3 1 0.0 16.6707206104 15.2229390839 61.7451975343
  115 3 1 0.0 17.1047206104 16.0779390839 62.3241975343
  116 3 1 -0.00537 17.5387206104 16.9329390839 62.9031975343
  117 3 1 0.0 17.9727206104 17.7879390839 63.4821975343
  118 3 1 0.0 18.4067206104 18.6429390839 64.0611975343
  119 3 1 -0.00537 18.8407206104 19.4979390839 64.6401975343
  120 3 1 -9.9999 19.2747206104 20.3529390839 65.2191975343
  121 4 1 9.99487 -36.3229691538 -49.1491942069 18.1537424215
  122 4 1 -0.00537 -36.9799691538 -49.6391942069 17.3897424215
  123 4 1 0.0 -37.6369691538 -50.1291942069 16.6257424215
  124 4 1 0.0 -38.2939691538 -50.6191942069 15.8617424215
  125 4 1 -0.00537 -38.9509691538 -51.1091942069 15.0977424215
  126 4 1 0.0 -39.6079691538 -51.5991942069 14.3337424215
  127 4 1 0.0 -40.2649691538 -52.0891942069 13.5697424215
  128 4 1 -0.00537 -40.9219691538 -52.5791942069 12.8057424215
  129 4 1 0.0 -41.5789691538 -53.0691942069 12.0417424215
  130 4 1 0.0 -42.2359691538 -53.5591942069 11.2777424215
  131 4 1 -0.00537 -42.8929691538 -54.0491942069 10.5137424215
  132 4 1 0.0 -43.5499691538 -54.5391942069 9.74974242152
  133 4 1 -9.99475 -44.2069691538 -55.0291942069 8.98574242152
  134 4 1 9.99355 -44.8639691538 -55.5191942069 8.22174242152
  135 4 1 0.0 -45.5209691538 -56.0091942069 7.45774242152
  136 4 1 0.0 -46.1779691538 -56.4991942069 6.69374242152
  137 4 1 -0.00537 -46.8349691538 -56.9891942069 5.92974242152
  138 4 1 0.0 -47.4919691538 -57.4791942069 5.16574242152
  139 4 1 0.0 -48.1489691538 -57.9691942069 4.40174242152
  140 4 1 -0.00537 -48.8059691538 -58.4591942069 3.63774242152
  141 4 1 0.0 -49.4629691538 -58.9491942069 2.87374242152
  142 4 1 0.0 -50.1199691538 -59.4391942069 2.10974242152
  143 4 1 -0.00537 -50.7769691538 -59.9291942069 1.34574242152
  144 4 1 0.0 -51.4339691538 -60.4191942069 0.581742421517
  145 4 1 0.0 -52.0909691538 -60.9091942069 -0.182257578483
  146 4 1 -0.00537 -52.7479691538 -61.3991942069 -0.946257578483
  147 4 1 0.0 -53.4049691538 -61.8891942069 -1.71025757848
  148 4 1 0.0 -54.0619691538 -62.3791942069 -2.47425757848
  149 4 1 -0.00537 -54.7189691538 -62.8691942069 -3.23825757848
  150 4 1 -9.9999 -55.3759691538 -63.3591942069 -4.00225757848
  151 5 1 9.99487 -37.3598874292 -9.66892711422 23.5918709128
  152 5 1 -0.00537 -36.3758874292 -9.89592711422 24.0768709128
  153 5 1 0.0 -35.3918874292 -10.1229271142 24.5618709128
  154 5 1 0.0 -34.4078874292 -10.3499271142 25.0468709128
  155 5 1 -0.00537 -33.4238874292 -10.5769271142 25.5318709128
  156 5 1 0.0 -32.4398874292 -10.8039271142 26.0168709128
  157 5 1 0.0 -31.4558874292 -11.0309271142 26.5018709128
  158 5 1 -0.00537 -30.4718874292 -11.2579271142 26.9868709128
  159 5 1 0.0 -29.4878874292 -11.4849271142 27.4718709128
  160 5 1 0.0 -28.5038874292 -11.7119271142 27.9568709128
  161 5 1 -0.00537 -27.5198874292 -11.9389271142 28.4418709128
  162 5 1 0.0 -26.5358874292 -12.1659271142 28.9268709128
  163 5 1 -9.99475 -25.5518874292 -12.3929271142 29.4118709128
  164 5 1 9.99355 -24.5678874292 -12.6199271142 29.8968709128
  165 5 1 0.0 -23.5838874292 -12.8469271142 30.3818709128
  166 5 1 0.0 -22.5998874292 -13.0739271142 30.8668709128
  167 5 1 -0.00537 -21.6158874292 -13.3009271142 31.3518709128
  168 5 1 0.0 -20.6318874292 -13.5279271142 31.8368709128
  169 5 1 0.0 -19.6478874292 -13.7549271142 32.3218709128
  170 5 1 -0.00537 -18.6638874292 -13.9819271142 32.8068709128
  171 5 1 0.0 -17.6798874292 -14.2089271142 33.2918709128
  172 5 1 0.0 -16.6958874292 -14.4359271142 33.7768709128
  173 5 1 -0.00537 -15.7118874292 -14.6629271142 34.2618709128
  174 5 1 0.0 -14.7278874292 -14.8899271142 34.7468709128
  175 5 1 0.0 -13.7438874292 -15.1169271142 35.2318709128
  176 5 1 -0.00537 -12.7598874292 -15.3439271142 35.7168709128
  177 5 1 0.0 -11.7758874292 -15.5709271142 36.2018709128
  178 5 1 0.0 -10.7918874292 -15.7979271142 36.6868709128
  179 5 1 -0.00537 -9.80788742923 -16.0249271142 37.1718709128
  180 5 1 -9.9999 -8.82388742923 -16.2519271142 37.6568709128
  181 6 1 9.99487 6.36151382211 2.37216464039 23.9210345785
  182 6 1 -0.00537 6.50551382211 3.16716464039 24.6970345785
  183 6 1 0.0 6.64951382211 3.96216464039 25.4730345785
  184 6 1 0.0 6.79351382211 4.75716464039 26.2490345785
  185 6 1 -0.00537 6.93751382211 5.55216464039 27.0250345785
  186 6 1 0.0 7.08151382211 6.34716464039 27.8010345785
  187 6 1 0.0 7.22551382211 7.14216464039 28.5770345785
  188 6 1 -0.00537 7.36951382211 7.93716464039 29.3530345785
  189 6 1 0.0 7.51351382211 8.73216464039 30.1290345785
  190 6 1 0.0 7.65751382211 9.52716464039 30.9050345785
  191 6 1 -0.00537 7.80151382211 10.3221646404 31.6810345785
  192 6 1 0.0 7.94551382211 11.1171646404 32.4570345785
  193 6 1 -9.99475 8.08951382211 11.9121646404 33.2330345785
  194 6 1 9.99355 8.23351382211 12.7071646404 34.0090345785
  195 6 1 0.0 8.37751382211 13.5021646404 34.7850345785
  196 6 1 0.0 8.52151382211 14.2971646404 35.5610345785
  197 6 1 -0.00537 8.66551382211 15.0921646404 36.3370345785
  198 6 1 0.0 8.80951382211 15.8871646404 37.1130345785
  199 6 1 0.0 8.95351382211 16.6821646404 37.8890345785
  200 6 1 -0.00537 9.09751382211 17.4771646404 38.6650345785
  201 6 1 0.0 9.24151382211 18.2721646404 39.4410345785
  202 6 1 0.0 9.38551382211 19.0671646404 40.2170345785
  203 6 1 -0.00537 9.52951382211 19.8621646404 40.9930345785
  204 6 1 0.0 9.67351382211 20.6571646404 41.7690345785
  205 6 1 0.0 9.81751382211 21.4521646404 42.5450345785
  206 6 1 -0.00537 9.96151382211 22.2471646404 43.3210345785
  207 6 1 0.0 10.1055138221 23.0421646404 44.0970345785
  208 6 1 0.0 10.2495138221 23.8371646404 44.8730345785
  209 6 1 -0.00537 10.3935138221 24.6321646404 45.6490345785
  210 6 1 -9.9999 10.5375138221 25.4271646404 46.4250345785
  211 7 1 9.99487 2.57114224678 -9.99247349441 8.3486929158
  212 7 1 -0.00537 3.02314224678 -10.8764734944 7.8306929158
  213 7 1 0.0 3.47514224678 -11.7604734944 7.3126929158
  214 7 1 0.0 3.92714224678 -12.6444734944 6.7946929158
  215 7 1 -0.00537 4.37914224678 -13.5284734944 6.2766929158
  216 7 1 0.0 4.83114224678 -14.4124734944 5.7586929158
  217 7 1 0.0 5.28314224678 -15.2964734944 5.2406929158
  218 7 1 -0.00537 5.73514224678 -16.1804734944 4.7226929158
  219 7 1 0.0 6.18714224678 -17.0644734944 4.2046929158
  220 7 1 0.0 6.63914224678 -17.9484734944 3.6866929158
  221 7 1 -0.00537 7.09114224678 -18.8324734944 3.1686929158
  222 7 1 0.0 7.54314224678 -19.7164734944 2.6506929158
  223 7 1 -9.99475 7.99514224678 -20.6004734944 2.1326929158
  224 7 1 9.99355 8.44714224678 -21.4844734944 1.6146929158
  225 7 1 0.0 8.89914224678 -22.3684734944 1.0966929158
  226 7 1 0.0 9.35114224678 -23.2524734944 0.578692915803
  227 7 1 -0.00537 9.80314224678 -24.1364734944 0.0606929158026
  228 7 1 0.0 10.2551422468 -25.0204734944 -0.457307084197
  229 7 1 0.0 10.7071422468 -25.9044734944 -0.975307084197
  230 7 1 -0.00537 11.1591422468 -26.7884734944 -1.4933070842
  231 7 1 0.0 11.6111422468 -27.6724734944 -2.0113070842
  232 7 1 0.0 12.0631422468 -28.5564734944 -2.5293070842
  233 7 1 -0.00537 12.5151422468 -29.4404734944 -3.0473070842
  234 7 1 0.0 12.9671422468 -30.3244734944 -3.5653070842
  235 7 1 0.0 13.4191422468 -31.2084734944 -4.0833070842
  236 7 1 -0.00537 13.8711422468 -32.0924734944 -4.6013070842
  237 7 1 0.0 14.3231422468 -32.9764734944 -5.1193070842
  238 7 1 0.0 14.7751422468 -33.8604734944 -5.6373070842
  239 7 1 -0.00537 15.2271422468 -34.7444734944 -6.1553070842
  240 7 1 -9.9999 15.6791422468 -35.6284734944 -6.6733070842
  241 8 1 9.99487 -9.92840913677 49.0207975585 12.5405175204
  242 8 1 -0.00537 -10.8154091368 48.5007975585 12.0965175204
  243 8 1 0.0 -11.7024091368 47.9807975585 11.6525175204
  244 8 1 0.0 -12.5894091368 47.4607975585 11.2085175204
  245 8 1 -0.00537 -13.4764091368 46.9407975585 10.7645175204
  246 8 1 0.0 -14.3634091368 46.4207975585 10.3205175204
  247 8 1 0.0 -15.2504091368 45.9007975585 9.87651752042
  248 8 1 -0.00537 -16.1374091368 45.3807975585 9.43251752042
  249 8 1 0.0 -17.0244091368 44.8607975585 8.98851752042
  250 8 1 0.0 -17.9114091368 44.3407975585 8.54451752042
  251 8 1 -0.00537 -18.7984091368 43.8207975585 8.10051752042
  252 8 1 0.0 -19.6854091368 43.3007975585 7.65651752042
  253 8 1 -9.99475 -20.5724091368 42.7807975585 7.21251752042
  254 8 1 9.99355 -21.4594091368 42.2607975585 6.76851752042
  255 8 1 0.0 -22.3464091368 41.7407975585 6.32451752042
  256 8 1 0.0 -23.2334091368 41.2207975585 5.88051752042
  257 8 1 -0.00537 -24.1204091368 40.7007975585 5.43651752042
  258 8 1 0.0 -25.0074091368 40.1807975585 4.99251752042
  259 8 1 0.0 -25.8944091368 39.6607975585 4.54851752042
  260 8 1 -0.00537 -26.7814091368 39.1407975585 4.10451752042
  261 8 1 0.0 -27.6684091368 38.6207975585 3.66051752042
  262 8 1 0.0 -28.5554091368 38.1007975585 3.21651752042
  263 8 1 -0.00537 -29.4424091368 37.5807975585 2.77251752042
  264 8 1 0.0 -30.3294091368 37.0607975585 2.32851752042
  265 8 1 0.0 -31.2164091368 36.5407975585 1.88451752042
  266 8 1 -0.00537 -32.1034091368 36.0207975585 1.44051752042
  267 8 1 0.0 -32.9904091368 35.5007975585 0.996517520421
  268 8 1 0.0 -33.8774091368 34.9807975585 0.552517520421
  269 8 1 -0.00537 -34.7644091368 34.4607975585 0.108517520421
  270 8 1 -9.9999 -35.6514091368 33.9407975585 -0.335482479579
  271 9 1 9.99487 28.2319669177 -22.2889165187 12.9702019999
  272 9 1 -0.00537 27.7719669177 -22.4179165187 13.9832019999
  273 9 1 0.0 27.3119669177 -22.5469165187 14.9962019999
  274 9 1 0.0 26.8519669177 -22.6759165187 16.0092019999
  275 9 1 -0.00537 26.3919669177 -22.8049165187 17.0222019999
  276 9 1 0.0 25.9319669177 -22.9339165187 18.0352019999
  277 9 1 0.0 25.4719669177 -23.0629165187 19.0482019999
  278 9 1 -0.00537 25.0119669177 -23.1919165187 20.0612019999
  279 9 1 0.0 24.5519669177 -23.3209165187 21.0742019999
  280 9 1 0.0 24.0919669177 -23.4499165187 22.0872019999
  281 9 1 -0.00537 23.6319669177 -23.5789165187 23.1002019999
  282 9 1 0.0 23.1719669177 -23.7079165187 24.1132019999
  283 9 1 -9.99475 22.7119669177 -23.8369165187 25.1262019999
  284 9 1 9.99355 22.2519669177 -23.9659165187 26.1392019999
  285 9 1 0.0 21.7919669177 -24.0949165187 27.1522019999
  286 9 1 0.0 21.3319669177 -24.2239165187 28.1652019999
  287 9 1 -0.00537 20.8719669177 -24.3529165187 29.1782019999
  288 9 1 0.0 20.4119669177 -24.4819165187 30.1912019999
  289 9 1 0.0 19.9519669177 -24.6109165187 31.2042019999
  290 9 1 -0.00537 19.4919669177 -24.7399165187 32.2172019999
  291 9 1 0.0 19.0319669177 -24.8689165187 33.2302019999
  292 9 1 0.0 18.5719669177 -24.9979165187 34.2432019999
  293 9 1 -0.00537 18.1119669177 -25.1269165187 35.2562019999
  294 9 1 0.0 17.6519669177 -25.2559165187 36.2692019999
  295 9 1 0.0 17.1919669177 -25.3849165187 37.2822019999
  296 9 1 -0.00537 16.7319669177 -25.5139165187 38.2952019999
  297 9 1 0.0 16.2719669177 -25.6429165187 39.3082019999
  298 9 1 0.0 15.8119669177 -25.7719165187 40.3212019999
  299 9 1 -0.00537 15.3519669177 -25.9009165187 41.3342019999
  300 9 1 -9.9999 14.8919669177 -26.0299165187 42.3472019999
  301 10 1 9.99487 -8.12912073289 40.4479776066 45.8203382267
  302 10 1 -0.00537 -7.64312073289 40.0099776066 44.9113382267
  303 10 1 0.0 -7.15712073289 39.5719776066 44.0023382267
  304 10 1 0.0 -6.67112073289 39.1339776066 43.0933382267
  305 10 1 -0.00537 -6.18512073289 38.6959776066 42.1843382267
  306 10 1 0.0 -5.69912073289 38.2579776066 41.2753382267
  307 10 1 0.0 -5.21312073289 37.8199776066 40.3663382267
  308 10 1 -0.00537 -4.72712073289 37.3819776066 39.4573382267
  309 10 1 0.0 -4.24112073289 36.9439776066 38.5483382267
  310 10 1 0.0 -3.75512073289 36.5059776066 37.6393382267
  311 10 1 -0.00537 -3.26912073289 36.0679776066 36.7303382267
  312 10 1 0.0 -2.78312073289 35.6299776066 35.8213382267
  313 10 1 -9.99475 -2.29712073289 35.1919776066 34.9123382267
  314 10 1 9.99355 -1.81112073289 34.7539776066 34.0033382267
  315 10 1 0.0 -1.32512073289 34.3159776066 33.0943382267
  316 10 1 0.0 -0.839120732885 33.8779776066 32.1853382267
  317 10 1 -0.00537 -0.353120732885 33.4399776066 31.2763382267
  318 10 1 0.0 0.132879267115 33.0019776066 30.3673382267
  319 10 1 0.0 0.618879267115 32.5639776066 29.4583382267
  320 10 1 -0.00537 1.10487926711 32.1259776066 28.5493382267
  321 10 1 0.0 1.59087926711 31.6879776066 27.6403382267
  322 10 1 0.0 2.07687926711 31.2499776066 26.7313382267
  323 10 1 -0.00537 2.56287926711 30.8119776066 25.8223382267
  324 10 1 0.0 3.04887926711 30.3739776066 24.9133382267
  325 10 1 0.0 3.53487926711 29.9359776066 24.0043382267
  326 10 1 -0.00537 4.02087926711 29.4979776066 23.0953382267
  327 10 1 0.0 4.50687926711 29.0599776066 22.1863382267
  328 10 1 0.0 4.99287926711 28.6219776066 21.2773382267
  329 10 1 -0.00537 5.47887926711 28.1839776066 20.3683382267
  330 10 1 -9.9999 5.96487926711 27.7459776066 19.4593382267
  331 11 1 9.99487 3.31731019015 -18.114101881 -30.0703124036
  332 11 1 -0.00537 4.22731019015 -18.105101881 -29.4173124036
  333 11 1 0.0 5.13731019015 -18.096101881 -28.7643124036
  334 11 1 0.0 6.04731019015 -18.087101881 -28.1113124036
  335 11 1 -0.00537 6.95731019015 -18.078101881 -27.4583124036
  336 11 1 0.0 7.86731019015 -18.069101881 -26.8053124036
  337 11 1 0.0 8.77731019015 -18.060101881 -26.1523124036
  338 11 1 -0.00537 9.68731019015 -18.051101881 -25.4993124036
  339 11 1 0.0 10.5973101901 -18.042101881 -24.8463124036
  340 11 1 0.0 11.5073101901 -18.033101881 -24.1933124036
  341 11 1 -0.00537 12.4173101901 -18.024101881 -23.5403124036
  342 11 1 0.0 13.3273101901 -18.015101881 -22.8873124036
  343 11 1 -9.99475 14.2373101901 -18.006101881 -22.2343124036
  344 11 1 9.99355 15.1473101901 -17.997101881 -21.5813124036
  345 11 1 0.0 16.0573101901 -17.988101881 -20.9283124036
  346 11 1 0.0 16.9673101901 -17.979101881 -20.2753124036
  347 11 1 -0.00537 17.8773101901 -17.970101881 -19.6223124036
  348 11 1 0.0 18.7873101901 -17.961101881 -18.9693124036
  349 11 1 0.0 19.6973101901 -17.952101881 -18.3163124036
  350 11 1 -0.00537 20.6073101901 -17.943101881 -17.6633124036
  351 11 1 0.0 21.5173101901 -17.934101881 -17.0103124036
  352 11 1 0.0 22.4273101901 -17.925101881 -16.3573124036
  353 11 1 -0.00537 23.3373101901 -17.916101881 -15.7043124036
  354 11 1 0.0 24.2473101901 -17.907101881 -15.0513124036
  355 11 1 0.0 25.1573101901 -17.898101881 -14.3983124036
  356 11 1 -0.00537 26.0673101901 -17.889101881 -13.7453124036
  357 11 1 0.0 26.9773101901 -17.880101881 -13.0923124036
  358 11 1 0.0 27.8873101901 -17.871101881 -12.4393124036
  359 11 1 -0.00537 28.7973101901 -17.862101881 -11.7863124036
  360 11 1 -9.9999 29.7073101901 -17.853101881 -11.1333124036
  361 12 1 9.99487 -6.77882177376 -46.9987146394 -12.8172859019
  362 12 1 -0.00537 -6.55382177376 -46.2847146394 -13.6502859019
  363 12 1 0.0 -6.32882177376 -45.5707146394 -14.4832859019
  364 12 1 0.0 -6.10382177376 -44.8567146394 -15.3162859019
  365 12 1 -0.00537 -5.87882177376 -44.1427146394 -16.1492859019
  366 12 1 0.0 -5.65382177376 -43.4287146394 -16.9822859019
  367 12 1 0.0 -5.42882177376 -42.7147146394 -17.8152859019
  368 12 1 -0.00537 -5.20382177376 -42.0007146394 -18.6482859019
  369 12 1 0.0 -4.97882177376 -41.2867146394 -19.4812859019
  370 12 1 0.0 -4.75382177376 -40.5727146394 -20.3142859019
  371 12 1 -0.00537 -4.52882177376 -39.8587146394 -21.1472859019
  372 12 1 0.0 -4.30382177376 -39.1447146394 -21.9802859019
  373 12 1 -9.99475 -4.07882177376 -38.4307146394 -22.8132859019
  374 12 1 9.99355 -3.85382177376 -37.7167146394 -23.6462859019
  375 12 1 0.0 -3.62882177376 -37.0027146394 -24.4792859019
  376 12 1 0.0 -3.40382177376 -36.2887146394 -25.3122859019
  377 12 1 -0.00537 -3.17882177376 -35.5747146394 -26.1452859019
  378 12 1 0.0 -2.95382177376 -34.8607146394 -26.9782859019
  379 12 1 0.0 -2.72882177376 -34.1467146394 -27.8112859019
  380 12 1 -0.00537 -2.50382177376 -33.4327146394 -28.6442859019
  381 12 1 0.0 -2.27882177376 -32.7187146394 -29.4772859019
  382 12 1 0.0 -2.05382177376 -32.0047146394 -30.3102859019
  383 12 1 -0.00537 -1.82882177376 -31.2907146394 -31.1432859019
  384 12 1 0.0 -1.60382177376 -30.5767146394 -31.9762859019
  385 12 1 0.0 -1.37882177376 -29.8627146394 -32.8092859019
  386 12 1 -0.00537 -1.15382177376 -29.1487146394 -33.6422859019
  387 12 1 0.0 -0.928821773755 -28.4347146394 -34.4752859019
  388 12 1 0.0 -0.703821773755 -27.7207146394 -35.3082859019
  389 12 1 -0.00537 -0.478821773755 -27.0067146394 -36.1412859019
  390 12 1 -9.9999 -0.253821773755 -26.2927146394 -36.9742859019
  391 13 1 9.99487 -11.4254321771 -40.9312525796 -6.81227403486
  392 13 1 -0.00537 -10.7104321771 -40.3432525796 -7.44227403486
  393 13 1 0.0 -9.99543217711 -39.7552525796 -8.07227403486
  394 13 1 0.0 -9.28043217711 -39.1672525796 -8.70227403486
  395 13 1 -0.00537 -8.56543217711 -38.5792525796 -9.33227403486
  396 13 1 0.0 -7.85043217711 -37.9912525796 -9.96227403486
  397 13 1 0.0 -7.13543217711 -37.4032525796 -10.5922740349
  398 13 1 -0.00537 -6.42043217711 -36.8152525796 -11.2222740349
  399 13 1 0.0 -5.70543217711 -36.2272525796 -11.8522740349
  400 13 1 0.0 -4.99043217711 -35.6392525796 -12.4822740349
  401 13 1 -0.00537 -4.27543217711 -35.0512525796 -13.1122740349
  402 13 1 0.0 -3.56043217711 -34.4632525796 -13.7422740349
  403 13 1 -9.99475 -2.84543217711 -33.8752525796 -14.3722740349
  404 13 1 9.99355 -2.13043217711 -33.2872525796 -15.0022740349
  405 13 1 0.0 -1.41543217711 -32.6992525796 -15.6322740349
  406 13 1 0.0 -0.70043217711 -32.1112525796 -16.2622740349
  407 13 1 -0.00537 0.0145678228904 -31.5232525796 -16.8922740349
  408 13 1 0.0 0.72956782289 -30.9352525796 -17.5222740349
  409 13 1 0.0 1.44456782289 -30.3472525796 -18.1522740349
  410 13 1 -0.00537 2.15956782289 -29.7592525796 -18.7822740349
  411 13 1 0.0 2.87456782289 -29.1712525796 -19.4122740349
  412 13 1 0.0 3.58956782289 -28.5832525796 -20.0422740349
  413 13 1 -0.00537 4.30456782289 -27.9952525796 -20.6722740349
  414 13 1 0.0 5.01956782289 -27.4072525796 -21.3022740349
  415 13 1 0.0 5.73456782289 -26.8192525796 -21.9322740349
  416 13 1 -0.00537 6.44956782289 -26.2312525796 -22.5622740349
  417 13 1 0.0 7.16456782289 -25.6432525796 -23.1922740349
  418 13 1 0.0 7.87956782289 -25.0552525796 -23.8222740349
  419 13 1 -0.00537 8.59456782289 -24.4672525796 -24.4522740349
  420 13 1 -9.9999 9.30956782289 -23.8792525796 -25.0822740349
  421 14 1 9.99487 19.9993793036 44.1526786029 42.9389702835
  422 14 1 -0.00537 20.4173793036 44.0966786029 43.9769702835
  423 14 1 0.0 20.8353793036 44.0406786029 45.0149702835
  424 14 1 0.0 21.2533793036 43.9846786029 46.0529702835
  425 14 1 -0.00537 21.6713793036 43.9286786029 47.0909702835
  426 14 1 0.0 22.0893793036 43.8726786029 48.1289702835
  427 14 1 0.0 22.5073793036 43.8166786029 49.1669702835
  428 14 1 -0.00537 22.9253793036 43.7606786029 50.2049702835
  429 14 1 0.0 23.3433793036 43.7046786029 51.2429702835
  430 14 1 0.0 23.7613793036 43.6486786029 52.2809702835
  431 14 1 -0.00537 24.1793793036 43.5926786029 53.3189702835
  432 14 1 0.0 24.5973793036 43.5366786029 54.3569702835
  433 14 1 -9.99475 25.0153793036 43.4806786029 55.3949702835
  434 14 1 9.99355 25.4333793036 43.4246786029 56.4329702835
  435 14 1 0.0 25.8513793036 43.3686786029 57.4709702835
  436 14 1 0.0 26.2693793036 43.3126786029 58.5089702835
  437 14 1 -0.00537 26.6873793036 43.2566786029 59.5469702835
  438 14 1 0.0 27.1053793036 43.2006786029 60.5849702835
  439 14 1 0.0 27.5233793036 43.1446786029 61.6229702835
  440 14 1 -0.00537 27.9413793036 43.0886786029 62.6609702835
  441 14 1 0.0 28.3593793036 43.0326786029 63.6989702835
  442 14 1 0.0 28.7773793036 42.9766786029 64.7369702835
  443 14 1 -0.00537 29.1953793036 42.9206786029 65.7749702835
  444 14 1 0.0 29.6133793036 42.8646786029 66.8129702835
  445 14 1 0.0 30.0313793036 42.8086786029 67.8509702835
  446 14 1 -0.00537 30.4493793036 42.7526786029 68.8889702835
  447 14 1 0.0 30.8673793036 42.6966786029 69.9269702835
  448 14 1 0.0 31.2853793036 42.6406786029 70.9649702835
  449 14 1 -0.00537 31.7033793036 42.5846786029 72.0029702835
  450 14 1 -9.9999 32.1213793036 42.5286786029 73.0409702835
  451 15 1 9.99487 0.998971436523 9.03226022868 44.1679263643
  452 15 1 -0.00537 0.473971436523 9.67026022868 43.4119263643
  453 15 1 0.0 -0.0510285634767 10.3082602287 42.6559263643
  454 15 1 0.0 -0.576028563477 10.9462602287 41.8999263643
  455 15 1 -0.00537 -1.10102856348 11.5842602287 41.1439263643
  456 15 1 0.0 -1.62602856348 12.2222602287 40.3879263643
  457 15 1 0.0 -2.15102856348 12.8602602287 39.6319263643
  458 15 1 -0.00537 -2.67602856348 13.4982602287 38.8759263643
  459 15 1 0.0 -3.20102856348 14.1362602287 38.1199263643
  460 15 1 0.0 -3.72602856348 14.7742602287 37.3639263643
  461 15 1 -0.00537 -4.25102856348 15.4122602287 36.6079263643
  462 15 1 0.0 -4.77602856348 16.0502602287 35.8519263643
  463 15 1 -9.99475 -5.30102856348 16.6882602287 35.0959263643
  464 15 1 9.99355 -5.82602856348 17.3262602287 34.3399263643
  465 15 1 0.0 -6.35102856348 17.9642602287 33.5839263643
  466 15 1 0.0 -6.87602856348 18.6022602287 32.8279263643
  467 15 1 -0.00537 -7.40102856348 19.2402602287 32.0719263643
  468 15 1 0.0 -7.92602856348 19.8782602287 31.3159263643
  469 15 1 0.0 -8.45102856348 20.5162602287 30.5599263643
  470 15 1 -0.00537 -8.97602856348 21.1542602287 29.8039263643
  471 15 1 0.0 -9.50102856348 21.7922602287 29.0479263643
  472 15 1 0.0 -10.0260285635 22.4302602287 28.2919263643
  473 15 1 -0.00537 -10.5510285635 23.0682602287 27.5359263643
  474 15 1 0.0 -11.0760285635 23.7062602287 26.7799263643
  475 15 1 0.0 -11.6010285635 24.3442602287 26.0239263643
  476 15 1 -0.00537 -12.1260285635 24.9822602287 25.2679263643
  477 15 1 0.0 -12.6510285635 25.6202602287 24.5119263643
  478 15 1 0.0 -13.1760285635 26.2582602287 23.7559263643
  479 15 1 -0.00537 -13.7010285635 26.8962602287 22.9999263643
  480 15 1 -9.9999 -14.2260285635 27.5342602287 22.2439263643
  481 16 1 9.99487 17.241955055 -10.9616863719 -32.7619528558
  482 16 1 -0.00537 17.685955055 -10.9576863719 -33.7899528558
  483 16 1 0.0 18.129955055 -10.9536863719 -34.8179528558
  484 16 1 0.0 18.573955055 -10.9496863719 -35.8459528558
  485 16 1 -0.00537 19.017955055 -10.9456863719 -36.8739528558
  486 16 1 0.0 19.461955055 -10.9416863719 -37.9019528558
  487 16 1 0.0 19.905955055 -10.9376863719 -38.9299528558
  488 16 1 -0.00537 20.349955055 -10.9336863719 -39.9579528558
  489 16 1 0.0 20.793955055 -10.9296863719 -40.9859528558
  490 16 1 0.0 21.237955055 -10.9256863719 -42.0139528558
  491 16 1 -0.00537 21.681955055 -10.9216863719 -43.0419528558
  492 16 1 0.0 22.125955055 -10.9176863719 -44.0699528558
  493 16 1 -9.99475 22.569955055 -10.9136863719 -45.0979528558
  494 16 1 9.99355 23.013955055 -10.9096863719 -46.1259528558
  495 16 1 0.0 23.457955055 -10.9056863719 -47.1539528558
  496 16 1 0.0 23.901955055 -10.9016863719 -48.1819528558
  497 16 1 -0.00537 24.345955055 -10.8976863719 -49.2099528558
  498 16 1 0.0 24.789955055 -10.8936863719 -50.2379528558
  499 16 1 0.0 25.233955055 -10.8896863719 -51.2659528558
  500 16 1 -0.00537 25.677955055 -10.8856863719 -52.2939528558
  501 16 1 0.0 26.121955055 -10.8816863719 -53.3219528558