LAMMPS (13 Apr 2017)
OMP_NUM_THREADS environment is not set. Defaulting to 1 thread. (../comm.cpp:90)
  using 1 OpenMP thread(s) per MPI task
#added some comments, visualise the oputput with "vmd test.xyz -e vmd_script"

units				lj 							#reduced MD units
atom_style			full  					#format of the configurational input
#bond_style     		harmonic
boundary 			p p p 				   		#periodic boundaries in all directions
atom_modify			sort 0 1   					#format of the output
read_data			lammps.data  					#file from which the initial configuraiton, bonds, and angles are read
  orthogonal box = (-200 -50 -50) to (200 50 50)
  1 by 1 by 1 MPI processor grid
  reading atoms ...
  320 atoms
  0 = max # of 1-2 neighbors
  0 = max # of 1-3 neighbors
  0 = max # of 1-4 neighbors
  1 = max # of special neighbors
neighbor        1 bin
neigh_modify		every 1 delay 1 			#how the neighbour list is built
pair_style			lj/cut 1.12  				#define the potential and the largest cut-off in the system
pair_coeff			1 1 10 1.0 1.12 			#interactions between particles of type 1: epsilon, sigma, cut-off
pair_modify			shift yes 					#shift the potential to 0 at the cut-off to ensure continuity
#bond_coeff 			* 8 0.9
dump				0 all xyz 100 test.xyz		#write the output file in the xyz form every 100 steps
velocity 			all create 1.0 1 			#create the initail velocities, around temp=1
fix					 0 all rigid/nve molecule					#perform nve integration
20 rigid bodies with 320 atoms
fix					3 all langevin 1 1 1 1000 	#add random noise via langevin equation of motion
thermo				300							#how often the output is written
timestep			0.001						#size of the time-step for the integration
run					250000						#run the simulation for this number of steps
Neighbor list info ...
  update every 1 steps, delay 1 steps, check yes
  max neighbors/atom: 2000, page size: 100000
  master list distance cutoff = 2.12
  ghost atom cutoff = 2.12
  binsize = 1.06, bins = 378 95 95
  1 neighbor lists, perpetual/occasional/extra = 1 0 0
  (1) pair lj/cut, perpetual
      attributes: half, newton on
      pair build: half/bin/newton
      stencil: half/bin/3d/newton
      bin: standard
Per MPI rank memory allocation (min/avg/max) = 22.52 | 22.52 | 22.52 Mbytes
Step Temp E_pair E_mol TotEng Press 
       0    1.1199321    9.3733511            0    9.5430908 -0.004416559 
     300    1.0744253    9.3733511            0    9.5361936 -0.00010445531 
     600    1.1907227    9.3733511            0      9.55382 0.00016184153 
     900    1.0839093    9.3733511            0    9.5376311 -0.00022213847 
    1200    0.9991392    9.3733511            0    9.5247831 0.00024411661 
    1500   0.91252103    9.3733511            0     9.511655 7.6517692e-05 
    1800   0.81436432    9.3733511            0    9.4967782 -5.7467016e-05 
    2100   0.91005456    9.3733511            0    9.5112812 0.00027850944 
    2400   0.97082425    9.3733511            0    9.5204916 -0.0005254072 
    2700     1.075515    9.3733511            0    9.5363588 -0.00012681491 
    3000     0.980278    9.3733511            0    9.5219244   0.00025935 
    3300   0.98252821    9.3733511            0    9.5222655 -1.9342332e-06 
    3600    1.0528276    9.3733511            0    9.5329202 -0.00016482642 
    3900    1.1150263    9.3733511            0    9.5423472 -0.00038834467 
    4200    1.1814107    9.3733511            0    9.5524086 -0.00022814281 
    4500     1.042279    9.3733511            0    9.5313215 -0.0004243239 
    4800   0.79254443    9.3733511            0    9.4934711 0.00032533666 
    5100   0.93519288    9.3733511            0    9.5150912 0.00023506903 
    5400    1.1247735    9.3733511            0    9.5438245 7.6032083e-05 
    5700    1.0430621    9.3733511            0    9.5314402 -0.00014671512 
    6000    1.1875691    9.3733511            0     9.553342 -0.00035149642 
    6300    1.1853364    9.3733511            0    9.5530036 -3.4413526e-06 
    6600    1.0556451    9.3733511            0    9.5333473 -0.00019020029 
    6900   0.93334983    9.3733511            0    9.5148119 -4.3775711e-05 
    7200   0.86412119    9.3733511            0    9.5043194 5.9275207e-05 
    7500   0.98911798    9.3733511            0    9.5232643 8.326015e-05 
    7800   0.80248629    9.3733511            0    9.4949779 0.00036967608 
    8100   0.70140323    9.3733511            0    9.4796575 0.00012088849 
    8400   0.93464377    9.3733511            0     9.515008 0.00030225057 
    8700   0.84584486    9.3733511            0    9.5015494 0.00022796186 
    9000   0.70894118    9.3733511            0       9.4808 -0.00019735379 
    9300   0.73568886    9.3733511            0    9.4848539 -7.1091117e-05 
    9600   0.96544673    9.3733511            0    9.5196766 -6.0249292e-05 
    9900   0.87791044    9.3733511            0    9.5064094 -0.00019572041 
   10200    1.0335318    9.3733511            0    9.5299957 0.00013724114 
   10500    1.0898885    9.3733511            0    9.5385373 -8.9262703e-05 
   10800    1.0089816    9.3733511            0    9.5262748 0.00022312007 
   11100    1.0911384    9.3733511            0    9.5387267 0.00010132022 
   11400    1.1548118    9.3733511            0    9.5483772 -3.6315439e-05 
   11700    1.0402063    9.3733511            0    9.5310073 0.00040087044 
   12000    1.0821538    9.3733511            0     9.537365 -0.00026719318 
   12300    1.1692706    9.3733511            0    9.5505686 0.00040288781 
   12600    1.0477133    9.3733511            0    9.5321451 0.00013435824 
   12900    1.0913623    9.3733511            0    9.5387607 -0.00020081735 
   13200    1.1054829    9.3733511            0    9.5409008 -0.0001965214 
   13500    1.1138205    9.3733511            0    9.5421645 4.2662508e-05 
   13800    1.0308742    9.3733511            0    9.5295929 -0.00021188598 
   14100   0.95329943    9.3733511            0    9.5178355 0.00021343518 
   14400    1.0697088    9.3733511            0    9.5354788 -0.000194749 
   14700    1.1621219    9.3733511            0    9.5494852 0.00023719554 
   15000    1.0151877    9.3733511            0    9.5272154 9.7949372e-05 
   15300   0.99999666    9.3733511            0    9.5249131 0.00025144818 
   15600   0.99100911    9.3733511            0    9.5235509 1.5126049e-05 
   15900   0.95954282    9.3733511            0    9.5187818 0.0003071555 
   16200    1.0603042    9.3733511            0    9.5340534 -0.00027979793 
   16500   0.83944751    9.3733511            0    9.5005798 7.6997359e-05 
   16800   0.90404698    9.3733511            0    9.5103707 -0.0006061507 
   17100    1.0484373    9.3733511            0    9.5322548 -7.1543767e-05 
   17400   0.85931858    9.3733511            0    9.5035915 0.00013597757 
   17700    1.0948871    9.3733511            0    9.5392949 0.00037718275 
   18000    1.1237397    9.3733511            0    9.5436679 6.6864113e-05 
   18300    1.1336185    9.3733511            0    9.5451651 6.438402e-05 
   18600    1.0384714    9.3733511            0    9.5307444 -8.0103988e-05 
   18900   0.94515625    9.3733511            0    9.5166013 4.9015312e-05 
   19200   0.95139603    9.3733511            0     9.517547 3.3503204e-05 
   19500   0.83542548    9.3733511            0    9.4999702 0.00024869364 
   19800   0.89326606    9.3733511            0    9.5087367 -8.2343562e-05 
   20100   0.87898934    9.3733511            0    9.5065729 0.00018442137 
   20400   0.90357408    9.3733511            0     9.510299 -0.00039043803 
   20700   0.92902908    9.3733511            0     9.514157 0.00019286866 
   21000   0.95424734    9.3733511            0    9.5179792 -3.4813411e-05 
   21300    1.0810395    9.3733511            0    9.5371961 0.00029099076 
   21600    1.0962752    9.3733511            0    9.5395053 -6.3447092e-05 
   21900    1.4390558    9.3733511            0    9.5914579 -0.00054629077 
   22200    1.2297114    9.3733511            0    9.5597292 -0.00028449195 
   22500    1.1754375    9.3733511            0    9.5515033 0.00028798773 
   22800   0.83479913    9.3733511            0    9.4998753 0.00016208456 
   23100   0.89800916    9.3733511            0    9.5094556 0.00041440373 
   23400    1.0324606    9.3733511            0    9.5298334 0.0002962654 
   23700   0.81927896    9.3733511            0     9.497523 -3.0995649e-05 
   24000   0.87138237    9.3733511            0    9.5054199 -0.00011443812 
   24300    1.0564716    9.3733511            0    9.5334725 7.0107566e-06 
   24600   0.94624279    9.3733511            0     9.516766 -5.1675714e-05 
   24900    0.7841399    9.3733511            0    9.4921973 4.3653525e-05 
   25200   0.85988586    9.3733511            0    9.5036775 -0.00023171333 
   25500    1.0119625    9.3733511            0    9.5267266 -0.00033603755 
   25800   0.99151185    9.3733511            0    9.5236271 9.4830772e-05 
   26100    1.0616673    9.3733511            0      9.53426 -0.0003368403 
   26400   0.93816411    9.3733511            0    9.5155416 -6.7866139e-06 
   26700    1.1198614    9.3733511            0    9.5430801 -0.00021668615 
   27000    1.0217782    9.3733511            0    9.5282143 -6.687058e-05 
   27300    1.2525273    9.3733511            0    9.5631872 -0.00011391826 
   27600    1.3041667    9.3733511            0    9.5710138 0.00012175191 
   27900    1.3919402    9.3733511            0     9.584317 8.6312576e-05 
   28200    1.4951245    9.3733511            0    9.5999559 0.00051935595 
   28500    1.3411221    9.3733511            0    9.5766149 -2.4459734e-06 
   28800    1.2674526    9.3733511            0    9.5654493 0.0001393591 
   29100    1.1677564    9.3733511            0    9.5503391 -0.00031878068 
   29400    1.0871739    9.3733511            0    9.5381259 -0.00012322934 
   29700    1.1003673    9.3733511            0    9.5401255 1.7384996e-05 
   30000   0.92596552    9.3733511            0    9.5136927 -1.1607359e-05 
   30300      1.10046    9.3733511            0    9.5401395 -0.00016780161 
   30600   0.92359257    9.3733511            0    9.5133331 -0.0002971682 
   30900    1.0408986    9.3733511            0    9.5311123 0.00033789933 
   31200    1.0630067    9.3733511            0     9.534463 0.00021954106 
   31500    1.1962825    9.3733511            0    9.5546626 0.00025109431 
   31800    1.1885121    9.3733511            0    9.5534849 0.00020546158 
   32100    1.2696825    9.3733511            0    9.5657873 4.5994322e-06 
   32400    1.3554339    9.3733511            0     9.578784 -0.0003655717 
   32700    1.1350808    9.3733511            0    9.5453867 0.00020698346 
   33000   0.90151379    9.3733511            0    9.5099867 0.00016409726 
   33300   0.79129989    9.3733511            0    9.4932824 0.0001405559 
   33600   0.91716625    9.3733511            0    9.5123591 -0.00017010648 
   33900    1.0219702    9.3733511            0    9.5282434 -0.00036006407 
   34200    1.0473495    9.3733511            0      9.53209 -0.00025118284 
   34500    1.0533713    9.3733511            0    9.5330026 -1.0098872e-05 
   34800    1.0842089    9.3733511            0    9.5376765 4.6714248e-05 
   35100    1.2019509    9.3733511            0    9.5555217 -8.3071363e-05 
   35400   0.87985084    9.3733511            0    9.5067035 0.00025122043 
   35700    1.1310415    9.3733511            0    9.5447745 -3.5376062e-05 
   36000    1.1395302    9.3733511            0    9.5460611 0.00046132133 
   36300    1.1996902    9.3733511            0    9.5551791 0.00038966273 
   36600     1.118602    9.3733511            0    9.5428892 0.00021211808 
   36900    1.0329778    9.3733511            0    9.5299118 -3.7336688e-05 
   37200    1.1159924    9.3733511            0    9.5424937 -0.00024398444 
   37500     1.035195    9.3733511            0    9.5302478 -0.00038544752 
   37800    1.0473315    9.3733511            0    9.5320872 -2.3414834e-05 
   38100    1.1521929    9.3733511            0    9.5479803 -0.00010498073 
   38400     1.034417    9.3733511            0    9.5301299 -0.00020588354 
   38700   0.99194769    9.3733511            0    9.5236931 -0.00011933517 
   39000    1.1940754    9.3733511            0    9.5543281 0.00030813249 
   39300   0.91802583    9.3733511            0    9.5124893 1.256086e-06 
   39600    1.0813582    9.3733511            0    9.5372444 -0.00042174236 
   39900   0.94462718    9.3733511            0    9.5165211 -0.00011370155 
   40200    1.0460619    9.3733511            0    9.5318948 4.7227162e-05 
   40500    1.2786877    9.3733511            0    9.5671522 0.00024571433 
   40800     1.117367    9.3733511            0     9.542702 -2.1835844e-06 
   41100   0.93351804    9.3733511            0    9.5148374 -0.00035045667 
   41400   0.96911136    9.3733511            0     9.520232 -0.00020458631 
   41700    1.1213731    9.3733511            0    9.5433092 0.00016801713 
   42000    1.1054833    9.3733511            0    9.5409009 0.00010112108 
   42300    1.0300176    9.3733511            0    9.5294631 0.00060909423 
   42600   0.87883486    9.3733511            0    9.5065495 -0.00014031301 
   42900   0.87822311    9.3733511            0    9.5064567 -0.00015715808 
   43200   0.90460865    9.3733511            0    9.5104558 -0.00030804585 
   43500   0.99763625    9.3733511            0    9.5245553 -4.7755414e-05 
   43800     1.098388    9.3733511            0    9.5398255 0.00034004491 
   44100    1.0796816    9.3733511            0    9.5369903 0.00021095838 
   44400    1.0286128    9.3733511            0    9.5292502 0.00018281127 
   44700   0.89614638    9.3733511            0    9.5091732 -7.4035343e-05 
   45000    1.0182465    9.3733511            0     9.527679 0.00048803558 
   45300   0.87418163    9.3733511            0    9.5058442 0.00035898595 
   45600   0.99003248    9.3733511            0    9.5234029 0.00022122265 
   45900   0.74030502    9.3733511            0    9.4855535 0.00035007121 
   46200    0.7219952    9.3733511            0    9.4827785 0.00012755277 
   46500     0.804616    9.3733511            0    9.4953007 -5.6868338e-05 
   46800     1.038292    9.3733511            0    9.5307172 -9.1101914e-06 
   47100    1.1051578    9.3733511            0    9.5408515 -0.00032369749 
   47400    0.9950722    9.3733511            0    9.5241667 0.00037471691 
   47700    1.0777718    9.3733511            0    9.5367008 0.00015148772 
   48000   0.97608617    9.3733511            0    9.5212891 0.00026500386 
   48300   0.95445433    9.3733511            0    9.5180105 1.8161448e-05 
   48600   0.85889166    9.3733511            0    9.5035268 -0.00023443773 
   48900   0.99197644    9.3733511            0    9.5236975 0.00030700507 
   49200    1.0540325    9.3733511            0    9.5331029 -7.1701826e-05 
   49500   0.90827222    9.3733511            0    9.5110111 2.4048465e-05 
   49800   0.85164906    9.3733511            0    9.5024291 -0.00014317581 
   50100   0.97007787    9.3733511            0    9.5203785 -0.00033215619 
   50400    1.0020808    9.3733511            0    9.5252289 -0.00026919488 
   50700   0.98164002    9.3733511            0    9.5221309 7.8043946e-05 
   51000   0.96449944    9.3733511            0     9.519533 -0.00019567332 
   51300    1.0027957    9.3733511            0    9.5253373 -0.00013682005 
   51600   0.89116594    9.3733511            0    9.5084184 5.0683732e-05 
   51900    1.0593665    9.3733511            0    9.5339113 0.00022280839 
   52200    1.0341416    9.3733511            0    9.5300881 4.9224378e-05 
   52500   0.96972559    9.3733511            0    9.5203251 0.00025976961 
   52800   0.88821487    9.3733511            0    9.5079711 4.8567783e-05 
   53100    1.0377525    9.3733511            0    9.5306354 -0.00019383304 
   53400    1.1760659    9.3733511            0    9.5515985 -0.00038709966 
   53700   0.95272656    9.3733511            0    9.5177487 -0.00021328532 
   54000   0.99215075    9.3733511            0    9.5237239 0.00027230762 
   54300   0.99845353    9.3733511            0    9.5246792 0.00013155602 
   54600   0.93986847    9.3733511            0    9.5157999 0.00028127149 
   54900    1.1312874    9.3733511            0    9.5448118 -0.00011972473 
   55200    1.0974629    9.3733511            0    9.5396853 0.0002495082 
   55500   0.82165531    9.3733511            0    9.4978832 -0.00018436781 
   55800    1.1151626    9.3733511            0    9.5423679 -0.00026260761 
   56100    1.3682127    9.3733511            0    9.5807208 0.00025466314 
   56400    1.1879926    9.3733511            0    9.5534062 -0.00045977343 
   56700    1.0318666    9.3733511            0    9.5297433 0.00016529947 
   57000   0.98341444    9.3733511            0    9.5223998 -8.260884e-05 
   57300     0.986017    9.3733511            0    9.5227943 0.00012871163 
   57600   0.94638022    9.3733511            0    9.5167868 2.8901348e-05 
   57900   0.99694432    9.3733511            0    9.5244504 0.00020656702 
   58200    1.0134247    9.3733511            0    9.5269482 8.3623297e-05 
   58500    1.2021314    9.3733511            0    9.5555491 -5.1539094e-05 
   58800    1.0940311    9.3733511            0    9.5391651 0.00018063317 
   59100    1.0495629    9.3733511            0    9.5324254 -9.392937e-05 
   59400    1.1924937    9.3733511            0    9.5540884 3.3196684e-05 
   59700    1.1421436    9.3733511            0    9.5464572 -4.9151891e-05 
   60000    1.0825721    9.3733511            0    9.5374284 -9.1471721e-05 
   60300   0.98627327    9.3733511            0    9.5228331 -0.00037919992 
   60600   0.92030598    9.3733511            0    9.5128349 0.00050419711 
   60900   0.92597229    9.3733511            0    9.5136937 -8.1161736e-05 
   61200     1.001748    9.3733511            0    9.5251785 -8.3549363e-05 
   61500    1.0684881    9.3733511            0    9.5352938 0.0001672385 
   61800    1.0848273    9.3733511            0    9.5377702 0.00021177748 
   62100    1.1241873    9.3733511            0    9.5437357 6.3686401e-05 
   62400       1.0449    9.3733511            0    9.5317187 -5.9940312e-05 
   62700   0.99563703    9.3733511            0    9.5242523 1.5772369e-05 
   63000    1.1137629    9.3733511            0    9.5421558 -0.00023422745 
   63300    1.1854334    9.3733511            0    9.5530183 -0.00027088573 
   63600   0.88183841    9.3733511            0    9.5070047 -6.2957119e-05 
   63900    1.0623161    9.3733511            0    9.5343583 0.00028373979 
   64200   0.95971718    9.3733511            0    9.5188082 -0.00011906452 
   64500    1.3336147    9.3733511            0     9.575477 4.1398993e-05 
   64800    1.2407313    9.3733511            0    9.5613994 0.00012875075 
   65100    1.1327138    9.3733511            0     9.545028 -0.00013738164 
   65400    1.1421024    9.3733511            0    9.5464509 -3.3951629e-05 
   65700     1.239572    9.3733511            0    9.5612237 -6.1564549e-05 
   66000    1.0480779    9.3733511            0    9.5322004 -0.00032435022 
   66300    1.2052478    9.3733511            0    9.5560214 -0.00034167504 
   66600    1.1782813    9.3733511            0    9.5519343 7.9392154e-05 
   66900    1.1384133    9.3733511            0    9.5458918 6.793511e-05 
   67200    1.0245699    9.3733511            0    9.5286374 -2.3767821e-05 
   67500    1.0280641    9.3733511            0     9.529167 0.00025182054 
   67800   0.96290329    9.3733511            0    9.5192911 -0.00025271694 
   68100    0.9861029    9.3733511            0    9.5228073 -8.5401278e-05 
   68400   0.85748625    9.3733511            0    9.5033138 -0.00015333241 
   68700    0.8895496    9.3733511            0    9.5081734 -0.00039403319 
   69000   0.94519021    9.3733511            0    9.5166064 0.0003686889 
   69300    1.0415454    9.3733511            0    9.5312103 0.00011737595 
   69600   0.88898008    9.3733511            0    9.5080871 -0.00017276956 
   69900    0.9393452    9.3733511            0    9.5157206 -1.5785565e-05 
   70200    1.0116544    9.3733511            0    9.5266799 0.00011715126 
   70500   0.87047283    9.3733511            0    9.5052821 2.9973278e-06 
   70800    1.1493307    9.3733511            0    9.5475465 -1.3797773e-05 
   71100    0.9781255    9.3733511            0    9.5215982 -8.0145303e-05 
   71400    1.0081809    9.3733511            0    9.5261535 -0.00011954434 
   71700    1.3283962    9.3733511            0    9.5746861 -4.8423223e-05 
   72000    1.1062129    9.3733511            0    9.5410114 -0.0001097151 
   72300   0.78356115    9.3733511            0    9.4921095 3.308576e-05 
   72600    1.0870423    9.3733511            0    9.5381059 -0.00031188096 
   72900    0.9893357    9.3733511            0    9.5232972 -0.00045248497 
   73200    1.0118537    9.3733511            0    9.5267101 3.9041598e-05 
   73500    1.1309948    9.3733511            0    9.5447675 -0.00026105569 
   73800    1.1282866    9.3733511            0     9.544357 0.0002971358 
   74100   0.91555188    9.3733511            0    9.5121144 -0.00026143716 
   74400   0.89083294    9.3733511            0    9.5083679 -0.00016225743 
   74700    1.0071071    9.3733511            0    9.5259907 0.00026609181 
   75000   0.88296103    9.3733511            0    9.5071748 -0.00026263475 
   75300   0.82502505    9.3733511            0    9.4983939 -3.31012e-05 
   75600    1.0236326    9.3733511            0    9.5284954 -0.00012172628 
   75900   0.89339101    9.3733511            0    9.5087556 -0.00010976917 
   76200    1.1248006    9.3733511            0    9.5438286 0.00016653252 
   76500    1.1429685    9.3733511            0    9.5465822 0.00035986161 
   76800    1.2917739    9.3733511            0    9.5691355 0.00023154508 
   77100    1.2326296    9.3733511            0    9.5601715 -0.00018115924 
   77400    1.0655981    9.3733511            0    9.5348558 0.00010371554 
   77700    1.0263331    9.3733511            0    9.5289047 0.00025890782 
   78000   0.89248922    9.3733511            0     9.508619 2.0680741e-05 
   78300   0.97871348    9.3733511            0    9.5216873  0.000358019 
   78600   0.95256994    9.3733511            0    9.5177249 0.0004567208 
   78900   0.78029218    9.3733511            0    9.4916141 -0.00012777167 
   79200   0.80105018    9.3733511            0    9.4947602 -0.00018664292 
   79500    0.7686151    9.3733511            0    9.4898443 -0.00018068232 
   79800   0.99820755    9.3733511            0    9.5246419 0.00063127171 
   80100    0.9432988    9.3733511            0    9.5163198 -8.4255571e-05 
   80400    1.0274435    9.3733511            0     9.529073 8.4870557e-05 
   80700    0.9559476    9.3733511            0    9.5182369 -5.6960763e-05 
   81000    1.0140037    9.3733511            0     9.527036 9.0462337e-05 
   81300    1.0160827    9.3733511            0    9.5273511 -0.00020767436 
   81600   0.97864411    9.3733511            0    9.5216768 -8.6257448e-06 
   81900    1.0212112    9.3733511            0    9.5281284 -0.00029398301 
   82200    1.0379801    9.3733511            0    9.5306699 -4.3035386e-05 
   82500   0.95413263    9.3733511            0    9.5179618 -0.0001830017 
   82800    1.0425771    9.3733511            0    9.5313666 -0.00030967209 
   83100   0.99626084    9.3733511            0    9.5243468 -0.00027586798 
   83400   0.88527564    9.3733511            0    9.5075256 0.00017377541 
   83700   0.93529457    9.3733511            0    9.5151066 -0.0001545456 
   84000   0.91069539    9.3733511            0    9.5113783 -5.9017244e-05 
   84300   0.91957676    9.3733511            0    9.5127244 5.5627676e-05 
   84600   0.90676466    9.3733511            0    9.5107826 -7.4374913e-05 
   84900    1.3284708    9.3733511            0    9.5746974 0.0001486044 
   85200    1.2168453    9.3733511            0    9.5577792 0.00017028441 
   85500   0.96825202    9.3733511            0    9.5201018 -0.00016417893 
   85800    1.0643144    9.3733511            0    9.5346612 0.00013192698 
   86100    1.0225284    9.3733511            0     9.528328 -0.00025754326 
   86400    1.0462752    9.3733511            0    9.5319271 -7.4990623e-05 
   86700    1.1487144    9.3733511            0    9.5474531 -0.000397386 
   87000    1.0697493    9.3733511            0    9.5354849 -0.0001058221 
   87300      1.02456    9.3733511            0    9.5286359 -0.00017214324 
   87600    1.0250835    9.3733511            0    9.5287153 3.9295682e-05 
   87900    1.4065353    9.3733511            0    9.5865291 6.6550076e-05 
   88200    1.3080577    9.3733511            0    9.5716036 0.00023705535 
   88500    1.3106454    9.3733511            0    9.5719957 5.6997695e-05 
   88800    1.3991936    9.3733511            0    9.5854163 0.00017129998 
   89100    1.3924731    9.3733511            0    9.5843978 0.00034042002 
   89400      1.11846    9.3733511            0    9.5428677 0.00011304818 
   89700    1.0271814    9.3733511            0    9.5290332 0.00015986736 
   90000    1.0414801    9.3733511            0    9.5312004 0.00011479263 
   90300    1.0842309    9.3733511            0    9.5376798 0.00012254068 
   90600    1.3089652    9.3733511            0    9.5717411 -9.3248573e-05 
   90900    1.3036838    9.3733511            0    9.5709406 -0.00013001038 
   91200    1.2479281    9.3733511            0    9.5624902 0.00023029955 
   91500    1.0601666    9.3733511            0    9.5340326 0.00029240625 
   91800   0.98512491    9.3733511            0    9.5226591 6.4604936e-05 
   92100    1.1311512    9.3733511            0    9.5447912 0.0001953707 
   92400   0.99209581    9.3733511            0    9.5237156 2.5404128e-05 
   92700    1.0313114    9.3733511            0    9.5296592 0.00030765841 
   93000   0.97976686    9.3733511            0     9.521847 -0.00016171163 
   93300    1.1949845    9.3733511            0    9.5544659 -0.00010585815 
   93600    1.3599052    9.3733511            0    9.5794617 0.00014932377 
   93900    1.3376076    9.3733511            0    9.5760822 0.00013407052 
   94200    1.1594688    9.3733511            0    9.5490831 0.00020143828 
   94500    1.1229077    9.3733511            0    9.5435418 -0.00032742377 
   94800    1.1659011    9.3733511            0    9.5500579 0.00024368546 
   95100   0.99976461    9.3733511            0    9.5248779 -3.0708606e-05 
   95400    1.0856213    9.3733511            0    9.5378905 -0.00018254113 
   95700    1.0579469    9.3733511            0    9.5336961 0.00028574233 
   96000    1.0227278    9.3733511            0    9.5283582 0.00024394175 
   96300   0.96252742    9.3733511            0    9.5192341 5.9276898e-06 
   96600   0.69158029    9.3733511            0    9.4781687 -0.00011523182 
   96900   0.90247918    9.3733511            0    9.5101331 -0.00025119221 
   97200   0.80975615    9.3733511            0    9.4960797 -6.7983586e-05 
   97500   0.71166364    9.3733511            0    9.4812126 0.0002493088 
   97800   0.94973704    9.3733511            0    9.5172956 0.00034743399 
   98100   0.89545558    9.3733511            0    9.5090685 -6.8889377e-05 
   98400   0.72413124    9.3733511            0    9.4831022 -9.974008e-05 
   98700   0.95417768    9.3733511            0    9.5179686 2.8847524e-05 
   99000    1.0947974    9.3733511            0    9.5392813 0.00025614709 
   99300     1.171185    9.3733511            0    9.5508588 -3.1142758e-05 
   99600   0.91135957    9.3733511            0     9.511479 -1.1202224e-05 
   99900    0.8707547    9.3733511            0    9.5053248 0.00041480607 
  100200   0.90809244    9.3733511            0    9.5109838 0.00010652445 
  100500    1.0491831    9.3733511            0    9.5323679 1.7331529e-05 
  100800    1.1126114    9.3733511            0    9.5419812 0.00035717897 
  101100    1.1239218    9.3733511            0    9.5436955 0.00033123303 
  101400    1.0829036    9.3733511            0    9.5374786 3.451511e-05 
  101700    1.0234091    9.3733511            0    9.5284615 -0.00031963055 
  102000    1.3184465    9.3733511            0    9.5731781 3.4751712e-05 
  102300    1.2109941    9.3733511            0    9.5568924 0.00041838952 
  102600    1.0844535    9.3733511            0    9.5377135 6.9164439e-05 
  102900    1.2203825    9.3733511            0    9.5583153 0.00023636375 
  103200    1.2914941    9.3733511            0    9.5690931 -5.3214478e-05 
  103500     1.108708    9.3733511            0    9.5413896 5.1417471e-05 
  103800    1.1423084    9.3733511            0    9.5464822 -6.8373725e-05 
  104100    1.1998003    9.3733511            0    9.5551958 -0.00019075861 
  104400   0.90186793    9.3733511            0    9.5100404 0.00029475665 
  104700   0.96756151    9.3733511            0    9.5199971 0.00013389338 
  105000     1.017564    9.3733511            0    9.5275756 -0.00016727281 
  105300    1.0389943    9.3733511            0    9.5308236 -0.00017691902 
  105600    1.2213041    9.3733511            0     9.558455 -8.0907729e-05 
  105900    1.0155341    9.3733511            0    9.5272679 5.3405917e-05 
  106200    1.1799709    9.3733511            0    9.5521904 -0.00024713564 
  106500    1.5190717    9.3733511            0    9.6035854 0.00011098905 
  106800    1.5088565    9.3733511            0    9.6020371 -0.00024371056 
  107100    1.3604192    9.3733511            0    9.5795396 -0.00029223589 
  107400    1.2609401    9.3733511            0    9.5644623 2.0584352e-05 
  107700    1.0068192    9.3733511            0    9.5259471 -0.00011379879 
  108000    1.1310476    9.3733511            0    9.5447755 0.00014478003 
  108300    1.0474657    9.3733511            0    9.5321076 -0.0002149749 
  108600   0.95088837    9.3733511            0    9.5174701 8.0087256e-05 
  108900    1.1183465    9.3733511            0    9.5428504 -0.00016432645 
  109200    1.1501367    9.3733511            0    9.5476687 0.00011348126 
  109500    1.0279175    9.3733511            0    9.5291448 -3.2142801e-05 
  109800   0.91227273    9.3733511            0    9.5116174 -0.00025812614 
  110100   0.89016931    9.3733511            0    9.5082673 7.5328463e-05 
  110400   0.74171357    9.3733511            0     9.485767 0.00012946748 
  110700   0.85367306    9.3733511            0    9.5027359 -2.2450768e-05 
  111000   0.86091872    9.3733511            0    9.5038341 7.3563866e-05 
  111300   0.95499408    9.3733511            0    9.5180923 0.00037640496 
  111600    0.6880472    9.3733511            0    9.4776332 -0.00034411249 
  111900   0.97261499    9.3733511            0     9.520763 0.00034698171 
  112200   0.97851139    9.3733511            0    9.5216567 0.00014469444 
  112500     1.006183    9.3733511            0    9.5258507 0.00025122791 
  112800    1.1448698    9.3733511            0    9.5468704 -0.00035096462 
  113100    1.2765384    9.3733511            0    9.5668264 5.1543801e-05 
  113400    1.3305893    9.3733511            0    9.5750185 -4.798879e-05 
  113700    1.2209088    9.3733511            0     9.558395 6.8831066e-05 
  114000    1.3552256    9.3733511            0    9.5787524 -0.00011005044 
  114300    1.5496376    9.3733511            0     9.608218 7.1789863e-05 
  114600    1.3554268    9.3733511            0    9.5787829 0.00010526305 
  114900    1.0469336    9.3733511            0    9.5320269 4.6805166e-05 
  115200   0.86011045    9.3733511            0    9.5037115 0.00020351921 
  115500   0.85936279    9.3733511            0    9.5035982 8.0595503e-05 
  115800   0.85977498    9.3733511            0    9.5036607 7.9669965e-05 
  116100   0.96327752    9.3733511            0    9.5193478 8.1292559e-05 
  116400    1.1384864    9.3733511            0    9.5459029 0.00022204438 
  116700    1.1033662    9.3733511            0      9.54058 -1.5286082e-05 
  117000     1.124074    9.3733511            0    9.5437185 -0.00015130023 
  117300     1.307176    9.3733511            0    9.5714699 -3.8287707e-05 
  117600   0.97111077    9.3733511            0     9.520535 -0.00032890179 
  117900    0.9196158    9.3733511            0    9.5127303 -0.00030309252 
  118200   0.86766202    9.3733511            0    9.5048561 -0.00050627824 
  118500   0.82898099    9.3733511            0    9.4989935 4.5731585e-05 
  118800   0.89301595    9.3733511            0    9.5086988 0.00025890459 
  119100   0.89078885    9.3733511            0    9.5083612 0.00023790094 
  119400    0.9412975    9.3733511            0    9.5160165 0.00017461724 
  119700   0.95159545    9.3733511            0    9.5175772 -0.00028902574 
  120000    1.0731238    9.3733511            0    9.5359964 -0.00012369657 
  120300    1.1907072    9.3733511            0    9.5538176 -9.6364293e-05 
  120600   0.92886296    9.3733511            0    9.5141319 4.058389e-05 
  120900   0.92748788    9.3733511            0    9.5139234 6.5669044e-05 
  121200   0.98782428    9.3733511            0    9.5230682 0.00031239027 
  121500    1.0413743    9.3733511            0    9.5311844 2.4146373e-05 
  121800    0.9516224    9.3733511            0    9.5175813 -2.0254576e-05 
  122100   0.81060206    9.3733511            0    9.4962079 -9.1372283e-05 
  122400   0.88114663    9.3733511            0    9.5068998 0.00039054062 
  122700    1.0783152    9.3733511            0    9.5367832 -1.2430926e-05 
  123000    1.0410217    9.3733511            0    9.5311309 5.8453337e-05 
  123300    1.0254231    9.3733511            0    9.5287667 -2.9176976e-06 
  123600   0.91702167    9.3733511            0    9.5123372 0.00012967571 
  123900   0.93774819    9.3733511            0    9.5154785 0.00021448637 
  124200    1.1418891    9.3733511            0    9.5464186 -0.00023743634 
  124500    1.1303046    9.3733511            0    9.5446628 7.8083825e-06 
  124800    1.3058736    9.3733511            0    9.5712725 -0.00034642884 
  125100    1.2994573    9.3733511            0    9.5703001 0.00018110785 
  125400    1.0821789    9.3733511            0    9.5373688 0.00042877284 
  125700   0.99058192    9.3733511            0    9.5234861 -0.00027912796 
  126000   0.95517288    9.3733511            0    9.5181194 -0.00020718157 
  126300     1.019078    9.3733511            0    9.5278051 9.6865152e-05 
  126600    1.1120611    9.3733511            0    9.5418978 -1.1609407e-05 
  126900    1.0738762    9.3733511            0    9.5361104 -6.3114139e-05 
  127200    1.0651737    9.3733511            0    9.5347914 -0.00022805684 
  127500    1.1103546    9.3733511            0    9.5416392 0.00012990497 
  127800      1.09628    9.3733511            0     9.539506 0.00032565131 
  128100      1.14605    9.3733511            0    9.5470493 7.3943196e-05 
  128400    1.1403124    9.3733511            0    9.5461797 -0.00022996576 
  128700    1.0186828    9.3733511            0    9.5277452 -0.00035209111 
  129000   0.87799832    9.3733511            0    9.5064227 8.2498171e-05 
  129300   0.86837999    9.3733511            0    9.5049649 0.00017891197 
  129600    1.0471197    9.3733511            0    9.5320551 -1.1708008e-05 
  129900   0.96667297    9.3733511            0    9.5198624 -0.00013089212 
  130200    1.0132854    9.3733511            0    9.5269271 -0.00045387109 
  130500    1.0813722    9.3733511            0    9.5372465 -0.00031403989 
  130800    1.2464235    9.3733511            0    9.5622621 -5.4403799e-05 
  131100    1.0255872    9.3733511            0    9.5287916 -0.00044680385 
  131400    1.0287347    9.3733511            0    9.5292687 0.00012016356 
  131700    1.2087909    9.3733511            0    9.5565584 0.00021844813 
  132000    1.3719742    9.3733511            0    9.5812909 -7.7883238e-05 
  132300    1.2060593    9.3733511            0    9.5561444 0.00033700737 
  132600    1.0240653    9.3733511            0     9.528561 0.00015146351 
  132900    1.1183449    9.3733511            0    9.5428502 -0.00017647369 
  133200    1.1204495    9.3733511            0    9.5431692 -0.00028821146 
  133500    1.1844549    9.3733511            0      9.55287 -7.3718412e-05 
  133800    1.1847254    9.3733511            0     9.552911 0.00015783116 
  134100   0.95852108    9.3733511            0    9.5186269 -0.00020701499 
  134400   0.83835669    9.3733511            0    9.5004145 -0.00016680032 
  134700   0.94743136    9.3733511            0    9.5169461 -0.0001410324 
  135000   0.72019002    9.3733511            0    9.4825049 4.4083884e-05 
  135300   0.87721935    9.3733511            0    9.5063046 -3.8238781e-05 
  135600   0.98933693    9.3733511            0    9.5232974 -0.00039838353 
  135900    1.1565186    9.3733511            0    9.5486359 -0.00016222121 
  136200    1.0840411    9.3733511            0     9.537651 0.00023139466 
  136500   0.98318027    9.3733511            0    9.5223643 -0.00053993664 
  136800    1.0683238    9.3733511            0    9.5352689 0.0001631488 
  137100   0.97799739    9.3733511            0    9.5215788 -1.6906909e-05 
  137400   0.88044177    9.3733511            0     9.506793 0.00010754837 
  137700    1.1220765    9.3733511            0    9.5434158 0.00013680835 
  138000    1.0246231    9.3733511            0    9.5286455 0.00010075264 
  138300   0.93082669    9.3733511            0    9.5144295 -0.0001618972 
  138600   0.68192297    9.3733511            0     9.476705 0.00011492405 
  138900   0.79882505    9.3733511            0     9.494423 -0.0001712327 
  139200   0.96149697    9.3733511            0    9.5190779 0.00016721008 
  139500    1.1926666    9.3733511            0    9.5541146 0.00032274139 
  139800    1.4737841    9.3733511            0    9.5967215 0.0005489262 
  140100    1.2230314    9.3733511            0    9.5587168 -0.00018720041 
  140400    1.0666658    9.3733511            0    9.5350176 0.00023252557 
  140700    1.1073304    9.3733511            0    9.5411808 0.00037076681 
  141000    1.1797052    9.3733511            0    9.5521501 -0.00030154182 
  141300    1.0424643    9.3733511            0    9.5313496 0.0003362458 
  141600    1.1437591    9.3733511            0     9.546702 -0.00039963331 
  141900    1.1623418    9.3733511            0    9.5495185 -0.00014536369 
  142200    0.9706156    9.3733511            0      9.52046 0.00014069438 
  142500    0.9549016    9.3733511            0    9.5180783 0.00011241573 
  142800    1.1231255    9.3733511            0    9.5435748 -0.00028267237 
  143100    1.1191689    9.3733511            0    9.5429751 -5.3999317e-05 
  143400   0.84056234    9.3733511            0    9.5007488 7.1160169e-05 
  143700   0.98528055    9.3733511            0    9.5226826 -5.4354546e-05 
  144000   0.92670747    9.3733511            0    9.5138052 0.00046216881 
  144300    1.1294608    9.3733511            0     9.544535 -0.00030005158 
  144600     1.330693    9.3733511            0    9.5750342 -0.00029705269 
  144900    1.2924098    9.3733511            0    9.5692319 -8.7608466e-05 
  145200   0.95226918    9.3733511            0    9.5176794 0.00012375749 
  145500   0.92303217    9.3733511            0    9.5132481 -0.00021516213 
  145800    1.0054284    9.3733511            0    9.5257363 -0.00043326258 
  146100   0.79949393    9.3733511            0    9.4945244 5.2242278e-05 
  146400   0.98084966    9.3733511            0    9.5220111 -0.000227043 
  146700   0.90290299    9.3733511            0    9.5101973 0.00024279791 
  147000   0.98887434    9.3733511            0    9.5232273 -4.5459079e-05 
  147300    1.1598616    9.3733511            0    9.5491426 0.00021436245 
  147600    1.2559846    9.3733511            0    9.5637112 0.00045690218 
  147900    1.1294609    9.3733511            0     9.544535 -0.00012722308 
  148200     1.262008    9.3733511            0    9.5646241 6.1034715e-06 
  148500   0.76867543    9.3733511            0    9.4898534 -0.00028490811 
  148800   0.78477964    9.3733511            0    9.4922942 7.8888336e-05 
  149100    0.7726427    9.3733511            0    9.4904547 2.8207749e-05 
  149400   0.71840206    9.3733511            0    9.4822339 -0.00017198072 
  149700   0.91410313    9.3733511            0    9.5118948 -0.00029890972 
  150000   0.89054716    9.3733511            0    9.5083246 -6.19557e-05 
  150300   0.90613497    9.3733511            0    9.5106871 -0.00031196723 
  150600   0.99682003    9.3733511            0    9.5244316 -0.00018389647 
  150900    1.2496452    9.3733511            0    9.5627504 -3.4961676e-05 
  151200   0.81769225    9.3733511            0    9.4972825 -8.7168497e-05 
  151500    1.0134305    9.3733511            0    9.5269491 -9.2590935e-05 
  151800    1.1279506    9.3733511            0    9.5443061 0.00017353459 
  152100    1.2450289    9.3733511            0    9.5620508 2.4289351e-05 
  152400    0.9071247    9.3733511            0    9.5108371  1.65818e-05 
  152700    1.0474143    9.3733511            0    9.5320998 -7.0348291e-05 
  153000   0.93058211    9.3733511            0    9.5143924 -0.00012702674 
  153300    1.0396543    9.3733511            0    9.5309237 -0.00031211082 
  153600    1.0475404    9.3733511            0    9.5321189 -0.0001487916 
  153900    1.1398718    9.3733511            0    9.5461129 -8.2947179e-05 
  154200    1.0834114    9.3733511            0    9.5375556 4.8884634e-05 
  154500    1.2128595    9.3733511            0    9.5571751 -0.00047948771 
  154800    1.2241277    9.3733511            0    9.5588829 9.9271439e-05 
  155100    1.0405861    9.3733511            0    9.5310649 -0.00038646939 
  155400    1.0875668    9.3733511            0    9.5381854 -7.1821267e-05 
  155700   0.97274305    9.3733511            0    9.5207824 0.00024625531 
  156000   0.87056716    9.3733511            0    9.5052964 -4.7010113e-05 
  156300   0.98182789    9.3733511            0    9.5221593 -1.7725243e-05 
  156600   0.89044294    9.3733511            0    9.5083088 0.00040146037 
  156900   0.90226339    9.3733511            0    9.5101004 -1.2238432e-05 
  157200    1.2498004    9.3733511            0    9.5627739 -3.9321521e-05 
  157500    1.0336331    9.3733511            0    9.5300111 7.1138323e-05 
  157800   0.99926534    9.3733511            0    9.5248022 0.00055876222 
  158100    1.0474706    9.3733511            0    9.5321083 2.7674775e-05 
  158400   0.97961697    9.3733511            0    9.5218243 0.00035102934 
  158700    1.1318251    9.3733511            0    9.5448933 -0.00018764016 
  159000    1.1155048    9.3733511            0    9.5424197 7.0251383e-05 
  159300   0.92774577    9.3733511            0    9.5139625 -0.00018017442 
  159600   0.98162474    9.3733511            0    9.5221286 7.9268001e-05 
  159900    1.1076338    9.3733511            0    9.5412268 -0.00023449787 
  160200    1.0253867    9.3733511            0    9.5287612 -0.00040138969 
  160500    1.0708466    9.3733511            0    9.5356512 9.6918228e-05 
  160800   0.93442166    9.3733511            0    9.5149743 -0.00042023751 
  161100    1.2357512    9.3733511            0    9.5606446 -1.3535717e-05 
  161400    1.0188186    9.3733511            0    9.5277658 -0.00038583321 
  161700   0.81173707    9.3733511            0      9.49638 9.8741821e-05 
  162000    1.1434184    9.3733511            0    9.5466504 5.6548678e-05 
  162300    1.0922734    9.3733511            0    9.5388987 0.00031793494 
  162600   0.98974621    9.3733511            0    9.5233595 0.00026110024 
  162900   0.87938113    9.3733511            0    9.5066323 -5.8641828e-06 
  163200   0.83449021    9.3733511            0    9.4998285 0.00037203081 
  163500    1.1777863    9.3733511            0    9.5518593 -0.00024358256 
  163800    1.4372427    9.3733511            0    9.5911832 6.4762252e-06 
  164100    1.1693353    9.3733511            0    9.5505784 5.9986215e-05 
  164400    1.1030314    9.3733511            0    9.5405293 -0.00017954174 
  164700   0.94102047    9.3733511            0    9.5159745 -0.00020650307 
  165000   0.90033105    9.3733511            0    9.5098075 -0.00023211478 
  165300    1.1537443    9.3733511            0    9.5482154 -2.7977811e-05 
  165600   0.78205579    9.3733511            0    9.4918814 -0.00026871536 
  165900   0.80872381    9.3733511            0    9.4959233 -7.4714396e-05 
  166200    1.0416268    9.3733511            0    9.5312226 0.00025540504 
  166500    1.1038495    9.3733511            0    9.5406533 5.3253851e-05 
  166800   0.97463607    9.3733511            0    9.5210693 0.00016960772 
  167100   0.90834266    9.3733511            0    9.5110217 5.7594728e-05 
  167400    1.0088712    9.3733511            0    9.5262581 7.929356e-05 
  167700    1.0105768    9.3733511            0    9.5265166 0.00056062813 
  168000    1.2066179    9.3733511            0    9.5562291 -9.5011078e-05 
  168300    1.2074536    9.3733511            0    9.5563557 0.00026101145 
  168600   0.97960115    9.3733511            0    9.5218219 -0.00030252434 
  168900    1.1633806    9.3733511            0    9.5496759 -8.5927288e-05 
  169200    1.2569125    9.3733511            0    9.5638519 0.00015308664 
  169500    1.1052636    9.3733511            0    9.5408676 -0.00020198359 
  169800   0.98933214    9.3733511            0    9.5232967 -0.00018316314 
  170100    1.2507396    9.3733511            0    9.5629163 -0.0001386391 
  170400    1.1093405    9.3733511            0    9.5414855 -2.4065987e-05 
  170700     1.150045    9.3733511            0    9.5476548 -0.00012492889 
  171000   0.92699862    9.3733511            0    9.5138493 4.6160931e-05 
  171300    1.1101356    9.3733511            0     9.541606 0.00023068583 
  171600    1.2938152    9.3733511            0    9.5694449 0.00013102467 
  171900    1.1944293    9.3733511            0    9.5543817 0.00030777042 
  172200   0.96092762    9.3733511            0    9.5189917 0.00032737057 
  172500    1.0199333    9.3733511            0    9.5279347 6.5560446e-05 
  172800    1.3215925    9.3733511            0    9.5736549 0.0001439778 
  173100    1.2450868    9.3733511            0    9.5620595 -0.00022847184 
  173400    1.0601437    9.3733511            0    9.5340291 8.4618656e-05 
  173700    1.0365069    9.3733511            0    9.5304466 0.0004415164 
  174000   0.95317752    9.3733511            0     9.517817 0.0002580912 
  174300    1.1981139    9.3733511            0    9.5549402 9.0201507e-05 
  174600    1.1550262    9.3733511            0    9.5484097 5.3534642e-05 
  174900    1.2208867    9.3733511            0    9.5583917 -6.8735959e-05 
  175200   0.83509297    9.3733511            0    9.4999198 -0.00013572989 
  175500    1.0483578    9.3733511            0    9.5322428 0.00035088632 
  175800    1.2428559    9.3733511            0    9.5617214 0.0003547749 
  176100    1.2821568    9.3733511            0    9.5676779 0.00032548747 
  176400   0.97860552    9.3733511            0     9.521671 0.00013017065 
  176700    1.0410553    9.3733511            0     9.531136 0.00024388299 
  177000   0.98456748    9.3733511            0    9.5225746 5.6771431e-05 
  177300   0.94438265    9.3733511            0    9.5164841 -1.3735873e-05 
  177600   0.68200334    9.3733511            0    9.4767172 6.8586539e-05 
  177900     0.779481    9.3733511            0    9.4914911 -0.00012527914 
  178200   0.92630479    9.3733511            0    9.5137441 0.00034957086 
  178500   0.97766104    9.3733511            0    9.5215278 0.00011314712 
  178800    1.0625632    9.3733511            0    9.5343958 -8.145034e-05 
  179100     1.086217    9.3733511            0    9.5379808 -8.2683282e-05 
  179400    1.0002573    9.3733511            0    9.5249526 0.00013617399 
  179700     1.341244    9.3733511            0    9.5766334 -2.5073951e-05 
  180000    1.3298493    9.3733511            0    9.5749063 -0.00018586412 
  180300    1.1022206    9.3733511            0    9.5404064  2.19298e-05 
  180600    1.2488263    9.3733511            0    9.5626263 0.00020643013 
  180900   0.91974744    9.3733511            0    9.5127503 -6.9628689e-05 
  181200   0.91071817    9.3733511            0    9.5113818 0.00033473012 
  181500   0.96817769    9.3733511            0    9.5200905 -8.1931897e-05 
  181800     1.015107    9.3733511            0    9.5272032 -0.00022476533 
  182100    1.1489701    9.3733511            0    9.5474918 -3.6838535e-05 
  182400    1.0040396    9.3733511            0    9.5255258 -2.0307572e-05 
  182700    1.0892821    9.3733511            0    9.5384454 0.00041069285 
  183000    1.1805413    9.3733511            0    9.5522769 -0.00015167918 
  183300    1.1387309    9.3733511            0      9.54594 0.00022781352 
  183600    0.9418376    9.3733511            0    9.5160983 0.00015898501 
  183900     1.114682    9.3733511            0     9.542295 0.00021932834 
  184200    1.2217188    9.3733511            0    9.5585178 0.00043605513 
  184500    1.0894321    9.3733511            0    9.5384681 3.0305355e-05 
  184800   0.82892668    9.3733511            0    9.4989853 -4.89504e-06 
  185100   0.71406026    9.3733511            0    9.4815758 -0.00011731558 
  185400   0.97517098    9.3733511            0    9.5211504 -7.2353182e-05 
  185700    1.2226554    9.3733511            0    9.5586598 -0.00022826471 
  186000    1.1446491    9.3733511            0    9.5468369 -0.00012479577 
  186300    1.1259026    9.3733511            0    9.5439957 0.00029704503 
  186600   0.94912673    9.3733511            0    9.5172031 -3.1683369e-05 
  186900    1.0843748    9.3733511            0    9.5377016 0.00046287565 
  187200   0.99165944    9.3733511            0    9.5236494 -0.00017082102 
  187500   0.98604964    9.3733511            0    9.5227992 0.00032219422 
  187800    1.1975811    9.3733511            0    9.5548594 2.3200789e-05 
  188100    1.3113598    9.3733511            0     9.572104 0.00017968333 
  188400    1.1467458    9.3733511            0    9.5471547 -0.00015272615 
  188700    1.1190841    9.3733511            0    9.5429622 -9.3532423e-05 
  189000    1.1375548    9.3733511            0    9.5457617 5.4467192e-05 
  189300   0.93154141    9.3733511            0    9.5145378 -0.00019648413 
  189600    1.0983824    9.3733511            0    9.5398246 -0.00023348414 
  189900    1.2119909    9.3733511            0    9.5570434 0.00014836995 
  190200       1.2936    9.3733511            0    9.5694123 -2.7773875e-05 
  190500     1.111481    9.3733511            0    9.5418099 0.00023410168 
  190800   0.93488348    9.3733511            0    9.5150443 -7.0812268e-05 
  191100   0.78784736    9.3733511            0    9.4927592 -0.00010271786 
  191400   0.81836095    9.3733511            0    9.4973839 8.1337225e-05 
  191700   0.98775751    9.3733511            0    9.5230581 -1.8911521e-05 
  192000    1.1389937    9.3733511            0    9.5459798 9.4171569e-05 
  192300    1.2061149    9.3733511            0    9.5561528 -0.00014693651 
  192600    1.0229148    9.3733511            0    9.5283866 0.00016827715 
  192900    1.0509404    9.3733511            0    9.5326342 -0.00020241246 
  193200    1.1681523    9.3733511            0    9.5503991 0.00015718998 
  193500    1.2073225    9.3733511            0    9.5563359 0.00047714704 
  193800    1.1549851    9.3733511            0    9.5484035 5.0696538e-05 
  194100    1.0013063    9.3733511            0    9.5251115 0.00014820776 
  194400   0.88984981    9.3733511            0    9.5082189  -0.00031248 
  194700   0.77849443    9.3733511            0    9.4913416 0.00026267697 
  195000   0.79891598    9.3733511            0    9.4944368 -0.00025750036 
  195300   0.84107655    9.3733511            0    9.5008267 -0.00012112569 
  195600   0.96447039    9.3733511            0    9.5195286 5.4189293e-05 
  195900    1.0410602    9.3733511            0    9.5311367 -0.0002363279 
  196200    1.0105602    9.3733511            0    9.5265141 0.0001983131 
  196500   0.90090631    9.3733511            0    9.5098947 0.00022247239 
  196800   0.98774603    9.3733511            0    9.5230563 6.7103169e-07 
  197100   0.97639943    9.3733511            0    9.5213366 -0.00022768111 
  197400    1.0479188    9.3733511            0    9.5321762 5.3965942e-05 
  197700   0.77332003    9.3733511            0    9.4905574 0.00047549257 
  198000    1.0394347    9.3733511            0    9.5308904 -8.3394941e-05 
  198300    1.0068248    9.3733511            0    9.5259479 -6.8680146e-05 
  198600   0.90213983    9.3733511            0    9.5100816 6.8963033e-05 
  198900    1.0742372    9.3733511            0    9.5361651 -1.2560315e-05 
  199200    1.3848592    9.3733511            0    9.5832438 -0.00036405248 
  199500     1.201414    9.3733511            0    9.5554404 -0.00016710223 
  199800    1.1129089    9.3733511            0    9.5420263 -0.00032152228 
  200100    1.1004663    9.3733511            0    9.5401405 -5.2890186e-05 
  200400   0.97209476    9.3733511            0    9.5206842 0.00016386629 
  200700   0.92973766    9.3733511            0    9.5142644 0.00018679176 
  201000     1.193289    9.3733511            0    9.5542089 0.0001966875 
  201300    1.2028715    9.3733511            0    9.5556613 -2.6067523e-05 
  201600    1.0988143    9.3733511            0    9.5398901 3.5120062e-05 
  201900    1.3359409    9.3733511            0    9.5758296 0.0001843654 
  202200    1.2276344    9.3733511            0    9.5594144 -0.00012604474 
  202500    1.0755233    9.3733511            0    9.5363601 -0.00017856052 
  202800   0.85270922    9.3733511            0    9.5025898 5.6842998e-05 
  203100    0.9468092    9.3733511            0    9.5168518 0.00038993453 
  203400   0.99439576    9.3733511            0    9.5240642 -5.2081604e-05 
  203700   0.79135299    9.3733511            0    9.4932905 -5.7614516e-05 
  204000   0.90823792    9.3733511            0    9.5110059 0.00013882096 
  204300   0.85792433    9.3733511            0    9.5033802 0.00013519677 
  204600    0.8388653    9.3733511            0    9.5004916 -2.8125191e-05 
  204900   0.90438265    9.3733511            0    9.5104216 0.00080289903 
  205200   0.79954839    9.3733511            0    9.4945326 0.00020354295 
  205500   0.91432846    9.3733511            0     9.511929 0.0001170575 
  205800     0.807499    9.3733511            0    9.4957376 -0.00011155418 
  206100    1.1187096    9.3733511            0    9.5429055 1.4791399e-05 
  206400    1.0598212    9.3733511            0    9.5339802 -6.6068018e-05 
  206700    0.8601659    9.3733511            0      9.50372 -3.7304539e-05 
  207000   0.89913137    9.3733511            0    9.5096257 -0.00028837913 
  207300     1.023157    9.3733511            0    9.5284233 -0.00032401261 
  207600   0.98804102    9.3733511            0     9.523101 -0.00023751302 
  207900    1.1804844    9.3733511            0    9.5522682 0.00014855464 
  208200   0.92463217    9.3733511            0    9.5134906 0.00024559931 
  208500   0.91889568    9.3733511            0    9.5126212 -0.00012420941 
  208800    1.1961091    9.3733511            0    9.5546363 -0.00011571973 
  209100    1.1306373    9.3733511            0    9.5447133 -0.00047292048 
  209400    1.0064696    9.3733511            0    9.5258941 -0.00034488523 
  209700    1.0110816    9.3733511            0    9.5265931 -0.00023471975 
  210000    1.1575638    9.3733511            0    9.5487943 0.00011054464 
  210300    1.2444345    9.3733511            0    9.5619607 -0.00019078667 
  210600     1.212029    9.3733511            0    9.5570492 -0.00041906286 
  210900    1.1757023    9.3733511            0    9.5515434 -9.1858965e-05 
  211200    1.0496839    9.3733511            0    9.5324438 -0.00013900663 
  211500    1.0710294    9.3733511            0     9.535679 -0.00020694051 
  211800    1.3539317    9.3733511            0    9.5785563 8.5802531e-05 
  212100    1.3572808    9.3733511            0    9.5790639 -9.1377982e-06 
  212400    1.1252721    9.3733511            0    9.5439001 0.00031659629 
  212700    1.2002117    9.3733511            0    9.5552581 0.00014036361 
  213000    1.1278924    9.3733511            0    9.5442973 0.00065757042 
  213300    1.0335394    9.3733511            0    9.5299969 -0.00018520667 
  213600    1.1225232    9.3733511            0    9.5434835 0.00036364136 
  213900    1.0658262    9.3733511            0    9.5348903 -4.6026593e-05 
  214200   0.81418988    9.3733511            0    9.4967517 -0.00013794046 
  214500    1.0101858    9.3733511            0    9.5264573 4.7210002e-05 
  214800     1.098433    9.3733511            0    9.5398323 0.00030872515 
  215100    1.3981978    9.3733511            0    9.5852654 5.0962743e-05 
  215400    1.2397447    9.3733511            0    9.5612499 0.00013860519 
  215700    1.2279791    9.3733511            0    9.5594666 -0.00033433133 
  216000    1.2237075    9.3733511            0    9.5588192 -0.00031360258 
  216300    1.0736652    9.3733511            0    9.5360784 1.7927578e-05 
  216600   0.92524329    9.3733511            0    9.5135832 0.00033668411 
  216900    1.2097149    9.3733511            0    9.5566985 9.3723673e-05 
  217200    1.1598032    9.3733511            0    9.5491337 -0.00019453973 
  217500    1.1975572    9.3733511            0    9.5548558 0.0001248455 
  217800     1.120627    9.3733511            0    9.5431961 1.4914377e-05 
  218100    1.3503468    9.3733511            0     9.578013 -0.00026589313 
  218400    1.3268688    9.3733511            0    9.5744546 0.00012278527 
  218700    1.0181933    9.3733511            0     9.527671 -6.4851048e-06 
  219000    1.1945706    9.3733511            0    9.5544032 -0.00010364154 
  219300    1.1742631    9.3733511            0    9.5513253 0.00031363143 
  219600    1.0959679    9.3733511            0    9.5394587 -4.4975992e-06 
  219900    1.1188729    9.3733511            0    9.5429302 -4.7574831e-05 
  220200    1.2054193    9.3733511            0    9.5560474 -5.0742949e-05 
  220500    1.0978555    9.3733511            0    9.5397448 -7.0248903e-05 
  220800    1.1410971    9.3733511            0    9.5462986 7.4440215e-05 
  221100     1.149462    9.3733511            0    9.5475664 -6.7684463e-05 
  221400   0.96780121    9.3733511            0    9.5200334 -0.0003904873 
  221700    1.2084504    9.3733511            0    9.5565068 0.00010136219 
  222000    1.1849961    9.3733511            0     9.552952 -4.4493641e-05 
  222300     1.214799    9.3733511            0     9.557469 -0.00015285215 
  222600    1.3992374    9.3733511            0     9.585423 -6.5054965e-05 
  222900    1.3143268    9.3733511            0    9.5725537 8.2536374e-05 
  223200    1.2879821    9.3733511            0    9.5685609 2.3698555e-07 
  223500   0.99390732    9.3733511            0    9.5239901 0.00010554639 
  223800   0.87195235    9.3733511            0    9.5055063 0.00036615758 
  224100    1.0266422    9.3733511            0    9.5289515 -0.00016865877 
  224400    1.0478355    9.3733511            0    9.5321636 7.6556752e-05 
  224700    1.0197527    9.3733511            0    9.5279073 0.00014462932 
  225000    1.2130711    9.3733511            0    9.5572072 -0.00029922573 
  225300    1.3332739    9.3733511            0    9.5754254 -5.6440575e-05 
  225600    1.3830463    9.3733511            0     9.582969 9.6250934e-05 
  225900    1.1255531    9.3733511            0    9.5439427 -5.4215832e-05 
  226200    1.1611161    9.3733511            0    9.5493327 -0.00022512279 
  226500     1.134525    9.3733511            0    9.5453025 -6.02961e-05 
  226800     1.116669    9.3733511            0    9.5425962 -0.00029417443 
  227100    1.0659068    9.3733511            0    9.5349026 0.00038140214 
  227400    1.1420648    9.3733511            0    9.5464453 6.3399239e-06 
  227700    1.2128634    9.3733511            0    9.5571757 -0.00010800618 
  228000    1.2053434    9.3733511            0    9.5560359 0.00013662425 
  228300    1.1968262    9.3733511            0     9.554745 -4.2236528e-05 
  228600    1.0720365    9.3733511            0    9.5358316 -7.5782216e-05 
  228900    0.8255952    9.3733511            0    9.4984803 -9.6130602e-05 
  229200   0.89494605    9.3733511            0    9.5089913 0.00012586805 
  229500    1.0348197    9.3733511            0    9.5301909 -0.00017586224 
  229800    1.0778125    9.3733511            0     9.536707 0.00017786191 
  230100    1.0161144    9.3733511            0    9.5273559 0.00036001545 
  230400    1.0457619    9.3733511            0    9.5318494 -0.0004343655 
  230700    1.1000299    9.3733511            0    9.5400743 0.00015659018 
  231000    1.0133971    9.3733511            0     9.526944 -0.00010661227 
  231300   0.90412249    9.3733511            0    9.5103821 0.00030168009 
  231600    1.2406338    9.3733511            0    9.5613846 1.9122971e-06 
  231900    1.3931688    9.3733511            0    9.5845032 -0.00028748785 
  232200     1.273317    9.3733511            0    9.5663382 -2.1920672e-05 
  232500    1.0987826    9.3733511            0    9.5398853 -0.00019857609 
  232800   0.95432292    9.3733511            0    9.5179906 0.00044490045 
  233100    1.2373646    9.3733511            0    9.5608891 -0.00018531244 
  233400    1.0144493    9.3733511            0    9.5271035 -2.6529457e-05 
  233700    1.0723995    9.3733511            0    9.5358866 -0.00039517337 
  234000    1.1429774    9.3733511            0    9.5465836 6.5492792e-05 
  234300    1.0658162    9.3733511            0    9.5348888 -1.7150106e-05 
  234600   0.86523379    9.3733511            0    9.5044881 0.0001120256 
  234900    1.2032284    9.3733511            0    9.5557154 9.3721374e-05 
  235200    1.2198292    9.3733511            0    9.5582314 -0.00026808925 
  235500    1.0992499    9.3733511            0    9.5399561 2.5760306e-06 
  235800    1.0817491    9.3733511            0    9.5373036 -0.00045957766 
  236100    1.0878452    9.3733511            0    9.5382276 0.00015507083 
  236400    1.0210426    9.3733511            0    9.5281028 -0.00042914419 
  236700    1.1325399    9.3733511            0    9.5450016 0.00027191194 
  237000    1.1936923    9.3733511            0    9.5542701 -9.2268818e-05 
  237300    1.1876217    9.3733511            0      9.55335 0.00038257261 
  237600    1.0551324    9.3733511            0    9.5332696 -0.00013620129 
  237900   0.97561366    9.3733511            0    9.5212175 -0.00041191586 
  238200    1.0357624    9.3733511            0    9.5303338 0.00012166335 
  238500    1.1223689    9.3733511            0    9.5434601 0.00018358405 
  238800    1.2557951    9.3733511            0    9.5636825 -0.00024238956 
  239100    1.0790753    9.3733511            0    9.5368984 -0.00024089589 
  239400      1.14434    9.3733511            0    9.5467901 2.1544035e-05 
  239700    1.1001234    9.3733511            0    9.5400885 0.00042369599 
  240000   0.92109161    9.3733511            0     9.512954 0.00012112489 
  240300    1.1211114    9.3733511            0    9.5432695 0.00026788512 
  240600   0.81635456    9.3733511            0    9.4970798 -0.0003880588 
  240900   0.94023634    9.3733511            0    9.5158556 0.00010576694 
  241200   0.93959887    9.3733511            0     9.515759 -0.00038170651 
  241500   0.90504075    9.3733511            0    9.5105213 0.00010670955 
  241800   0.96290915    9.3733511            0     9.519292 -2.3536589e-05 
  242100   0.86813145    9.3733511            0    9.5049272 -6.1045094e-05 
  242400   0.75137671    9.3733511            0    9.4872316 -0.00017718936 
  242700   0.99219384    9.3733511            0    9.5237304 0.00022863403 
  243000    1.0210174    9.3733511            0     9.528099 -0.00031757463 
  243300    0.9211716    9.3733511            0    9.5129661 -0.00035115416 
  243600    1.0919557    9.3733511            0    9.5388506 -0.00016280025 
  243900   0.96141741    9.3733511            0    9.5190659 -9.7214087e-05 
  244200    1.0349222    9.3733511            0    9.5302064 4.3631317e-05 
  244500    1.2138122    9.3733511            0    9.5573195 0.00013168058 
  244800    1.1386249    9.3733511            0    9.5459239 4.5967652e-05 
  245100     1.067827    9.3733511            0    9.5351936 0.00019840607 
  245400    1.0668903    9.3733511            0    9.5350516 5.6659529e-05 
  245700    1.0991059    9.3733511            0    9.5399343 0.00030498328 
  246000   0.88249199    9.3733511            0    9.5071038 0.00018960945 
  246300   0.95587797    9.3733511            0    9.5182263 -0.00026733113 
  246600    0.9795689    9.3733511            0     9.521817 -0.00034632774 
  246900   0.97565601    9.3733511            0    9.5212239 0.00010059376 
  247200   0.99999825    9.3733511            0    9.5249133 -8.6412004e-05 
  247500    1.1914821    9.3733511            0    9.5539351 6.6960604e-05 
  247800    1.2173081    9.3733511            0    9.5578493 -0.00018747429 
  248100    1.0121539    9.3733511            0    9.5267556 7.0923117e-05 
  248400   0.91632255    9.3733511            0    9.5122312 -3.9785824e-06 
  248700    1.0634578    9.3733511            0    9.5345314 8.4927779e-05 
  249000    1.0632464    9.3733511            0    9.5344993 -0.00021959513 
  249300   0.97218661    9.3733511            0    9.5206981 -0.00012445457 
  249600   0.80170406    9.3733511            0    9.4948593 -3.5178017e-06 
  249900   0.88922662    9.3733511            0    9.5081245 -0.00023557684 
  250000   0.85335498    9.3733511            0    9.5026877 8.1834309e-05 
Loop time of 14.633 on 1 procs for 250000 steps with 320 atoms

Performance: 1476116.433 tau/day, 17084.681 timesteps/s
99.3% CPU use with 1 MPI tasks x 1 OpenMP threads

MPI task timing breakdown:
Section |  min time  |  avg time  |  max time  |%varavg| %total
---------------------------------------------------------------
Pair    | 1.959      | 1.959      | 1.959      |   0.0 | 13.39
Bond    | 0.01176    | 0.01176    | 0.01176    |   0.0 |  0.08
Neigh   | 1.5248     | 1.5248     | 1.5248     |   0.0 | 10.42
Comm    | 0.1338     | 0.1338     | 0.1338     |   0.0 |  0.91
Output  | 1.3421     | 1.3421     | 1.3421     |   0.0 |  9.17
Modify  | 9.2738     | 9.2738     | 9.2738     |   0.0 | 63.38
Other   |            | 0.3877     |            |       |  2.65

Nlocal:    320 ave 320 max 320 min
Histogram: 1 0 0 0 0 0 0 0 0 0
Nghost:    38 ave 38 max 38 min
Histogram: 1 0 0 0 0 0 0 0 0 0
Neighs:    580 ave 580 max 580 min
Histogram: 1 0 0 0 0 0 0 0 0 0

Total # of neighbors = 580
Ave neighs/atom = 1.8125
Ave special neighs/atom = 0
Neighbor list builds = 655
Dangerous builds = 0
Total wall time: 0:00:14
