LAMMPS (17 Nov 2016)
#added some comments, visualise the oputput with "vmd test.xyz -e vmd_script"

units				lj 							#reduced MD units
atom_style			full  					#format of the configurational input
#bond_style     		harmonic
boundary 			p p p 				   		#periodic boundaries in all directions
atom_modify			sort 0 1   					#format of the output
read_data			test.data  					#file from which the initial configuraiton, bonds, and angles are read
  orthogonal box = (-10 -10 -10) to (10 10 10)
  1 by 1 by 1 MPI processor grid
  reading atoms ...
  20 atoms
  0 = max # of 1-2 neighbors
  0 = max # of 1-3 neighbors
  0 = max # of 1-4 neighbors
  1 = max # of special neighbors
neighbor        1 bin
neigh_modify		every 1 delay 1 			#how the neighbour list is built
pair_style			lj/cut 1.12  				#define the potential and the largest cut-off in the system
pair_coeff			1 1 10 1.0 1.12 			#interactions between particles of type 1: epsilon, sigma, cut-off
pair_modify			shift yes 					#shift the potential to 0 at the cut-off to ensure continuity
#bond_coeff 			* 8 0.9
dump				0 all xyz 100 test.xyz		#write the output file in the xyz form every 100 steps
velocity 			all create 1.0 1 			#create the initail velocities, around temp=1
fix					 0 all rigid/nve molecule					#perform nve integration
2 rigid bodies with 20 atoms
fix					3 all langevin 1 1 1 1000 	#add random noise via langevin equation of motion
thermo				300							#how often the output is written
timestep			0.001						#size of the time-step for the integration
run					250000						#run the simulation for this number of steps
Neighbor list info ...
  1 neighbor list requests
  update every 1 steps, delay 1 steps, check yes
  max neighbors/atom: 2000, page size: 100000
  master list distance cutoff = 2.12
  ghost atom cutoff = 2.12
  binsize = 1.06 -> bins = 19 19 19
Memory usage per processor = 7.60424 Mbytes
Step Temp E_pair E_mol TotEng Press 
       0    0.5412422    1.4997362            0    1.6215157   0.70091376 
     300    1.9391113   0.99982411            0    1.4361241 -0.031248532 
     600    1.3202513   0.99982411            0    1.2968807  0.035840132 
     900    1.0565242   0.99982411            0    1.2375421 -0.031864716 
    1200   0.59027874   0.99982411            0    1.1326368 -0.031463217 
    1500   0.93903797   0.99982411            0    1.2111077 -0.0047481463 
    1800    1.4146662   0.99982411            0     1.318124 -0.019116802 
    2100     1.986058   0.99982411            0    1.4466872 -0.0081233398 
    2400    1.8596394   0.99982411            0     1.418243 -0.0031929376 
    2700    2.2757169   0.99982411            0    1.5118604 -0.0052671131 
    3000    1.8231238   0.99982411            0     1.410027 -0.010647636 
    3300    1.4197157   0.99982411            0    1.3192601 -0.036914646 
    3600    1.2070215   0.99982411            0    1.2714039 -0.022321832 
    3900    1.7712104   0.99982411            0    1.3983464 0.0048165128 
    4200    1.9785134   0.99982411            0    1.4449896 -0.011797153 
    4500    2.2779411   0.99982411            0    1.5123609  0.015943243 
    4800    1.8597654   0.99982411            0    1.4182713 -0.0088958374 
    5100    1.7136885   0.99982411            0     1.385404 -0.034119331 
    5400   0.68615425   0.99982411            0    1.1542088 -0.049597438 
    5700   0.51797111   0.99982411            0    1.1163676  0.036760653 
    6000    1.3050583   0.99982411            0    1.2934622  0.011183361 
    6300   0.64062918   0.99982411            0    1.1439657 -0.0048072205 
    6600   0.95895665   0.99982411            0    1.2155894  0.020766441 
    6900   0.53193964   0.99982411            0    1.1195105 -0.021465879 
    7200    1.1635436   0.99982411            0    1.2616214  0.026673719 
    7500    1.3383853   0.99982411            0    1.3009608  0.014124283 
    7800   0.83130982   0.99982411            0    1.1868688  0.002356128 
    8100   0.55924451   0.99982411            0    1.1256541 -0.0025959348 
    8400   0.85678488   0.99982411            0    1.1926007 -0.016513322 
    8700    1.1786192   0.99982411            0    1.2650134 -0.014066826 
    9000    1.0019673   0.99982411            0    1.2252667 -0.003940015 
    9300   0.55409456   0.99982411            0    1.1244954  -0.03178032 
    9600    0.5297562   0.99982411            0    1.1190193  -0.01752829 
    9900    1.4806132   0.99982411            0    1.3329621 -0.0068813338 
   10200    1.8577121   0.99982411            0    1.4178093 -0.039261953 
   10500    0.8942526   0.99982411            0    1.2010309 -0.011137072 
   10800    1.0007717   0.99982411            0    1.2249977 0.0016334919 
   11100   0.73710586   0.99982411            0    1.1656729 -0.043481062 
   11400    1.1753886   0.99982411            0    1.2642865 0.0093825887 
   11700    1.2304679   0.99982411            0    1.2766794  0.012729146 
   12000    1.6797559   0.99982411            0    1.3777692  0.008642178 
   12300    1.5048983   0.99982411            0    1.3384262  0.020187846 
   12600    1.7281477   0.99982411            0    1.3886573 -0.015851039 
   12900    1.1771643   0.99982411            0    1.2646861 -0.037160885 
   13200    1.4999582   0.99982411            0    1.3373147 0.0036931158 
   13500    1.6672522   0.99982411            0    1.3749559 -0.029843319 
   13800    2.0256973   0.99982411            0     1.455606 0.0034197138 
   14100    1.1642346   0.99982411            0    1.2617769 -0.028138219 
   14400    1.3263426   0.99982411            0    1.2982512 0.00080133546 
   14700   0.79356138   0.99982411            0    1.1783754   0.04532943 
   15000    0.4789779   0.99982411            0    1.1075941 -0.0082444026 
   15300   0.76890517   0.99982411            0    1.1728278 -0.034646097 
   15600   0.90282262   0.99982411            0    1.2029592  0.014619919 
   15900    1.2705134   0.99982411            0    1.2856896 -0.007362032 
   16200   0.86418191   0.99982411            0     1.194265  0.037697601 
   16500    0.4913191   0.99982411            0    1.1103709  0.011278574 
   16800    1.0757927   0.99982411            0    1.2418775  0.035056139 
   17100   0.76604141   0.99982411            0    1.1721834 -0.0043686996 
   17400     1.068414   0.99982411            0    1.2402173   0.04949437 
   17700   0.66380083   0.99982411            0    1.1491793  0.011802225 
   18000    1.2186107   0.99982411            0    1.2740115   0.01874088 
   18300   0.89623354   0.99982411            0    1.2014767  0.048198844 
   18600    1.2320321   0.99982411            0    1.2770313  0.027485677 
   18900    1.6040845   0.99982411            0    1.3607431 -0.002827058 
   19200    1.7234632   0.99982411            0    1.3876033 -0.012171827 
   19500    1.6974925   0.99982411            0    1.3817599  0.016655968 
   19800     1.136179   0.99982411            0    1.2554644 -0.026532626 
   20100     1.074017   0.99982411            0    1.2414779 -0.0099963233 
   20400   0.94216245   0.99982411            0    1.2118107  -0.05714936 
   20700     1.233897   0.99982411            0    1.2774509 -0.0048119993 
   21000   0.63901685   0.99982411            0    1.1436029 -0.0029336179 
   21300   0.57374124   0.99982411            0    1.1289159 -0.003257468 
   21600   0.47905433   0.99982411            0    1.1076113  0.014725487 
   21900    1.5723885   0.99982411            0    1.3536115  0.023813402 
   22200     2.179706   0.99982411            0     1.490258 -4.1181661e-05 
   22500    2.4676829   0.99982411            0    1.5550528 0.00080758807 
   22800    1.8680263   0.99982411            0      1.42013 -0.011604055 
   23100     1.702584   0.99982411            0    1.3829055 -0.034554853 
   23400    2.1083747   0.99982411            0    1.4742084  -0.02749396 
   23700    1.7967885   0.99982411            0    1.4041015  0.001315808 
   24000    1.2306151   0.99982411            0    1.2767125 -0.011453967 
   24300    1.2421295   0.99982411            0    1.2793032 -0.024044472 
   24600    2.4558163   0.99982411            0    1.5523828 -0.048168008 
   24900    1.7276372   0.99982411            0    1.3885425 -0.00089415024 
   25200    1.2148612   0.99982411            0    1.2731679  -0.03757543 
   25500    3.3642628   0.99982411            0    1.7567832 -0.039171673 
   25800    2.7394984   0.99982411            0    1.6162113 -0.0096838411 
   26100    1.2081267   0.99982411            0    1.2716526  0.031838809 
   26400   0.83191463   0.99982411            0    1.1870049  0.049743746 
   26700    0.6943019   0.99982411            0     1.156042 -0.041734569 
   27000   0.82912538   0.99982411            0    1.1863773 -0.032027169 
   27300   0.98277687   0.99982411            0    1.2209489 -0.020416693 
   27600     1.027135   0.99982411            0    1.2309295 -0.011500972 
   27900   0.86117243   0.99982411            0    1.1935879 -0.028485748 
   28200     1.585834   0.99982411            0    1.3566368 -0.013407847 
   28500    1.2191266   0.99982411            0    1.2741276 -0.045922937 
   28800    1.5749171   0.99982411            0    1.3541805 -0.00060843853 
   29100   0.98533636   0.99982411            0    1.2215248 -0.014096022 
   29400    1.8118266   0.99982411            0    1.4074851 -0.018896633 
   29700    1.8916699   0.99982411            0    1.4254498  0.040441269 
   30000    1.6977452   0.99982411            0    1.3818168  0.019436409 
   30300    2.0893716   0.99982411            0    1.4699327 -0.0020286149 
   30600    1.8807684   0.99982411            0     1.422997  0.016541183 
   30900    1.2745327   0.99982411            0     1.286594  0.031662044 
   31200   0.54181467   0.99982411            0    1.1217324  0.015063949 
   31500   0.75388006   0.99982411            0    1.1694471 -0.022536346 
   31800   0.90211454   0.99982411            0    1.2027999 -0.0063730823 
   32100    1.8477416   0.99982411            0     1.415566 -0.011588564 
   32400    1.1921185   0.99982411            0    1.2680508 -0.014209935 
   32700    0.9467986   0.99982411            0    1.2128538 0.0080442443 
   33000    1.4877398   0.99982411            0    1.3345656 -0.014309441 
   33300    1.2775636   0.99982411            0    1.2872759 0.0017982129 
   33600    2.0793385   0.99982411            0    1.4676753  0.037423857 
   33900     1.778614   0.99982411            0    1.4000123 0.0062658663 
   34200    2.0177526   0.99982411            0    1.4538184  0.028985566 
   34500    2.3993834   0.99982411            0    1.5396854 0.0077923795 
   34800    1.2584101   0.99982411            0    1.2829664 -0.0096483084 
   35100   0.49154329   0.99982411            0    1.1104214 0.0098547214 
   35400   0.78446573   0.99982411            0    1.1763289 -0.0075874447 
   35700   0.45721336   0.99982411            0    1.1026971 -0.010597928 
   36000    1.1562723   0.99982411            0    1.2599854  0.024401514 
   36300   0.73107125   0.99982411            0    1.1643151  0.045770452 
   36600   0.52031455   0.99982411            0    1.1168949 -0.026723641 
   36900    1.4852803   0.99982411            0    1.3340122  0.015341501 
   37200    1.1765756   0.99982411            0    1.2645536 -0.016591153 
   37500   0.57452253   0.99982411            0    1.1290917  0.019082451 
   37800   0.38522252   0.99982411            0    1.0864992 -0.028423907 
   38100   0.65301119   0.99982411            0    1.1467516 0.0092546842 
   38400   0.69808194   0.99982411            0    1.1568925 0.00039624119 
   38700    1.0499526   0.99982411            0    1.2360635  0.025046912 
   39000    2.1458192   0.99982411            0    1.4826334 -0.015031229 
   39300    1.6979791   0.99982411            0    1.3818694  0.022809515 
   39600    1.9332065   0.99982411            0    1.4347956 0.0092627624 
   39900    2.0403074   0.99982411            0    1.4588933 -0.0021892165 
   40200    1.4940179   0.99982411            0    1.3359781  -0.03123355 
   40500   0.57373231   0.99982411            0    1.1289139 -0.014210993 
   40800   0.93693649   0.99982411            0    1.2106348 -0.0039560527 
   41100    1.3500697   0.99982411            0    1.3035898 -0.029887509 
   41400   0.89329726   0.99982411            0     1.200816   0.04172805 
   41700   0.87503705   0.99982411            0    1.1967074 -0.010296191 
   42000   0.95906478   0.99982411            0    1.2156137 -0.010742221 
   42300    1.2428369   0.99982411            0    1.2794624 -0.010010902 
   42600    1.2985711   0.99982411            0    1.2920026 -0.0023445464 
   42900    0.9415178   0.99982411            0    1.2116656 -0.0011356508 
   43200   0.77399668   0.99982411            0    1.1739734   0.01097337 
   43500   0.62473183   0.99982411            0    1.1403888 -0.040438263 
   43800    1.0746755   0.99982411            0    1.2416261 -0.017496416 
   44100    1.7608204   0.99982411            0    1.3960087  -0.02567437 
   44400    1.9879653   0.99982411            0    1.4471163 0.0011921753 
   44700     1.841546   0.99982411            0     1.414172 -0.0037646577 
   45000    1.6142384   0.99982411            0    1.3630278 -0.015456366 
   45300    1.9725661   0.99982411            0    1.4436515 -0.016613263 
   45600    2.0846111   0.99982411            0    1.4688616  0.018404545 
   45900     2.048537   0.99982411            0    1.4607449  0.035151299 
   46200    2.9230957   0.99982411            0    1.6575207 0.00074392763 
   46500    3.0289055   0.99982411            0    1.6813279 -0.014580411 
   46800    3.0695752   0.99982411            0    1.6904785 -0.015780342 
   47100    2.1297509   0.99982411            0    1.4790181 0.0093544968 
   47400    1.4307206   0.99982411            0    1.3217362  0.017542967 
   47700     1.314352   0.99982411            0    1.2955533 -0.0070175939 
   48000   0.67200078   0.99982411            0    1.1510243 -0.0056229969 
   48300   0.41840888   0.99982411            0    1.0939661 -0.0021298123 
   48600   0.35427266   0.99982411            0    1.0795355 0.0096781938 
   48900   0.86939619   0.99982411            0    1.1954383 0.0086089132 
   49200    2.3117919   0.99982411            0    1.5199773 -0.0063785437 
   49500    2.7622536   0.99982411            0    1.6213312  0.014152949 
   49800   0.87108945   0.99982411            0    1.1958192  0.012233038 
   50100   0.50808705   0.99982411            0    1.1141437 -0.042613084 
   50400    1.0514505   0.99982411            0    1.2364005 -0.0064583921 
   50700     1.858253   0.99982411            0     1.417931 -0.025675016 
   51000    1.4141212   0.99982411            0    1.3180014 -0.018522418 
   51300    2.1002066   0.99982411            0    1.4723706 -0.017584711 
   51600      1.06171   0.99982411            0    1.2387089 0.0064706432 
   51900    1.5110308   0.99982411            0    1.3398061  0.020579586 
   52200    1.3466979   0.99982411            0    1.3028311 -0.021173812 
   52500    1.8296291   0.99982411            0    1.4114907 0.0034550418 
   52800    1.4143222   0.99982411            0    1.3180466 -0.0079367202 
   53100   0.93743498   0.99982411            0     1.210747  0.011461523 
   53400    1.0446454   0.99982411            0    1.2348693  -0.03689188 
   53700   0.55080721   0.99982411            0    1.1237557 0.0044975095 
   54000    1.6714157   0.99982411            0    1.3758927 -0.0041570809 
   54300    1.7256743   0.99982411            0    1.3881008  -0.04064493 
   54600    1.5321152   0.99982411            0      1.34455 -0.027259455 
   54900    1.3611371   0.99982411            0      1.30608  0.035625604 
   55200    1.4031662   0.99982411            0    1.3155365  0.050728856 
   55500    1.3031964   0.99982411            0    1.2930433 -0.015223713 
   55800    1.5031387   0.99982411            0    1.3380303  0.034568992 
   56100    1.7303706   0.99982411            0    1.3891575 -0.014186217 
   56400     1.176793   0.99982411            0    1.2646025  0.024440418 
   56700    1.2037189   0.99982411            0    1.2706609 0.0097664738 
   57000    1.6008766   0.99982411            0    1.3600213 -0.0098017097 
   57300    2.4125342   0.99982411            0    1.5426443  0.016004699 
   57600    1.9642392   0.99982411            0    1.4417779 0.0045014681 
   57900    1.2932212   0.99982411            0    1.2907989 0.00030304528 
   58200   0.71566591   0.99982411            0    1.1608489 -0.013725864 
   58500   0.81351974   0.99982411            0    1.1828661 -0.0075474171 
   58800     1.873861   0.99982411            0    1.4214428 -0.034225757 
   59100    1.7202808   0.99982411            0    1.3868873 -0.056660317 
   59400    2.8789798   0.99982411            0    1.6475946 -0.029969626 
   59700    1.5524359   0.99982411            0    1.3491222 -0.0074796059 
   60000    1.8788009   0.99982411            0    1.4225543  0.030617841 
   60300    1.0275797   0.99982411            0    1.2310296 0.0062221178 
   60600      1.11677   0.99982411            0    1.2510974  0.012922618 
   60900      1.52162   0.99982411            0    1.3421886 -0.0028364159 
   61200    1.2569405     1.034696            0    1.3175076 0.0055920695 
   61500    0.8517842   0.99982411            0    1.1914756 0.0033898934 
   61800    1.1097046   0.99982411            0    1.2495077 -0.032446653 
   62100    1.4375859   0.99982411            0    1.3232809 -0.0026578593 
   62400    1.3224482   0.99982411            0     1.297375  0.010102768 
   62700    1.2611531   0.99982411            0    1.2835836 -0.0071797854 
   63000    1.4837333   0.99982411            0    1.3336641 -0.027740391 
   63300    1.9002439   0.99982411            0     1.427379 0.00019256718 
   63600    1.5131255   0.99982411            0    1.3402773 -0.012463144 
   63900    1.3606986   0.99982411            0    1.3059813  0.016873988 
   64200    1.4126077   0.99982411            0    1.3176609 -0.021480356 
   64500    1.2523714   0.99982411            0    1.2816077 0.0081757345 
   64800    1.2901707   0.99982411            0    1.2901125 -0.0074498679 
   65100    1.2880303   0.99982411            0    1.2896309  0.018018583 
   65400   0.70270136   0.99982411            0    1.1579319  0.020152271 
   65700   0.89666614   0.99982411            0     1.201574 0.0079603749 
   66000    2.4402013   0.99982411            0    1.5488694 -0.013714596 
   66300    1.6166041   0.99982411            0      1.36356  0.037708419 
   66600    1.0637531   0.99982411            0    1.2391686  0.022039215 
   66900    1.0650741   0.99982411            0    1.2394658  0.048526269 
   67200   0.79705577   0.99982411            0    1.1791617 -0.0031131566 
   67500    1.1962622   0.99982411            0    1.2689831 -0.041459708 
   67800   0.75726539   0.99982411            0    1.1702088  0.003617512 
   68100   0.56252997   0.99982411            0    1.1263934  0.025935926 
   68400    1.3341877   0.99982411            0    1.3000164  0.016815443 
   68700   0.89769015   0.99982411            0    1.2018044 -0.0044854612 
   69000    1.3632361   0.99982411            0    1.3065522 -0.049715231 
   69300    1.7960135   0.99982411            0    1.4039272  0.011734982 
   69600    1.4187081   0.99982411            0    1.3190334 0.0027561681 
   69900    1.5968083   0.99982411            0     1.359106 -0.0087210623 
   70200   0.65274561   0.99982411            0    1.1466919 -0.030042552 
   70500    1.1988029   0.99982411            0    1.2695548  0.019419274 
   70800    1.1572148   0.99982411            0    1.2601974 -0.008716839 
   71100   0.70581294   0.99982411            0     1.158632 -0.013507119 
   71400    1.2715548   0.99982411            0    1.2859239 0.0040337119 
   71700    2.4291791   0.99982411            0    1.5463894  -0.02253028 
   72000    2.0756958   0.99982411            0    1.4668557 -0.029976454 
   72300    1.7885479   0.99982411            0    1.4022474 -0.013718798 
   72600    1.8538679   0.99982411            0    1.4169444 -0.022122755 
   72900    1.7368748   0.99982411            0    1.3906209 -0.036168731 
   73200    1.2123917   0.99982411            0    1.2726122 -0.035832016 
   73500    1.0914435   0.99982411            0    1.2453989 -0.024696538 
   73800    1.8478833   0.99982411            0    1.4155979 -0.034178018 
   74100    1.5591056   0.99982411            0    1.3506229  0.002274713 
   74400    2.2951383   0.99982411            0    1.5162302  -0.01135766 
   74700    2.2303759   0.99982411            0    1.5016587 0.0052635282 
   75000    1.5140721   0.99982411            0    1.3404903  0.011732876 
   75300    1.1309425   0.99982411            0    1.2542862 -0.0026528365 
   75600   0.75186234   0.99982411            0    1.1689931 -0.0023209461 
   75900     1.352657   0.99982411            0    1.3041719 -0.028143089 
   76200   0.55698333   0.99982411            0    1.1251454 -0.017663304 
   76500   0.69719833   0.99982411            0    1.1566937 -0.00020910239 
   76800   0.47336411   0.99982411            0     1.106331  0.012009637 
   77100   0.57050997   0.99982411            0    1.1281889 -0.032849476 
   77400   0.75424869   0.99982411            0    1.1695301 -0.047843153 
   77700    1.8518495   0.99982411            0    1.4164903 -0.0017340762 
   78000    1.7326362   0.99982411            0    1.3896673 -0.025027087 
   78300    1.2331703   0.99982411            0    1.2772874 0.0092725789 
   78600    1.2193457   0.99982411            0    1.2741769 -0.010928643 
   78900   0.98746268   0.99982411            0    1.2220032  -0.03231296 
   79200   0.89176979   0.99982411            0    1.2004723 -0.011412239 
   79500    1.6729225   0.99982411            0    1.3762317  0.041556934 
   79800   0.84367128   0.99982411            0    1.1896502 -0.0053296769 
   80100    1.2684312   0.99982411            0    1.2852211 -0.029300128 
   80400   0.64006066   0.99982411            0    1.1438378 -0.068803679 
   80700    1.4010942   0.99982411            0    1.3150703  0.022082391 
   81000    2.6405298   0.99982411            0    1.5939433 -0.016557304 
   81300    1.5657135   0.99982411            0    1.3521097   0.05506998 
   81600    0.8296885   0.99982411            0     1.186504 -0.031970584 
   81900   0.78085435   0.99982411            0    1.1755163  0.015947197 
   82200    1.3803631   0.99982411            0    1.3104058 -0.021770109 
   82500    1.4384982   0.99982411            0    1.3234862 -0.031135269 
   82800     1.556967   0.99982411            0    1.3501417  0.036236029 
   83100    1.7268283   0.99982411            0    1.3883605 -0.0057664875 
   83400    1.1873433   0.99982411            0    1.2669764 -0.039594788 
   83700    1.0532683   0.99982411            0    1.2368095 -0.035362083 
   84000    1.0927795   0.99982411            0    1.2456995 -0.022063761 
   84300   0.44060117   0.99982411            0    1.0989594  0.017072941 
   84600    1.6143841   0.99982411            0    1.3630605 -0.018019146 
   84900    1.6101514   0.99982411            0    1.3621082 0.0090651887 
   85200    1.5564984   0.99982411            0    1.3500363 -0.017273132 
   85500    1.0065379   0.99982411            0    1.2262951  0.030490526 
   85800    1.4840727   0.99982411            0    1.3337405 -0.016532955 
   86100    1.2277363   0.99982411            0    1.2760648 0.0027003711 
   86400    1.3957682   0.99982411            0     1.313872 -0.039310762 
   86700    1.4673881   0.99982411            0    1.3299864 -0.044614691 
   87000    1.2208525   0.99982411            0    1.2745159 -0.00043987035 
   87300    1.4384817   0.99982411            0    1.3234825 0.0018636537 
   87600    1.4701269   0.99982411            0    1.3306027 -0.0028905923 
   87900    1.4986073   0.99982411            0    1.3370107   0.03270627 
   88200    2.0518925   0.99982411            0    1.4614999 -0.0014368201 
   88500    1.6522314   0.99982411            0    1.3715762  0.012243642 
   88800    1.4646791   0.99982411            0    1.3293769  0.016161751 
   89100    1.0712919   0.99982411            0    1.2408648  0.014542403 
   89400    0.7188332   0.99982411            0    1.1615616  0.015991773 
   89700   0.98858377   0.99982411            0    1.2222555  -0.01975199 
   90000   0.86608371   0.99982411            0    1.1946929 -0.0015105608 
   90300    1.3256877   0.99982411            0    1.2981038 -0.023922448 
   90600    1.5974322   0.99982411            0    1.3592464   0.01349768 
   90900    1.6820662   0.99982411            0     1.378289 -0.024945569 
   91200     1.750083   0.99982411            0    1.3935928 -0.0028575002 
   91500    1.9961237   0.99982411            0    1.4489519  -0.00989718 
   91800   0.99883891   0.99982411            0    1.2245629 -0.011465137 
   92100    1.1597836   0.99982411            0    1.2607754   0.01348934 
   92400    1.7838761   0.99982411            0    1.4011962  0.036431214 
   92700    1.6119696   0.99982411            0    1.3625173   0.05460745 
   93000   0.89809642   0.99982411            0    1.2018958 -0.017098994 
   93300    1.7898572   0.99982411            0     1.402542  0.024211167 
   93600   0.73432207   0.99982411            0    1.1650466 0.0049783777 
   93900    1.5442191   0.99982411            0    1.3472734  0.090586442 
   94200    1.0873958   0.99982411            0    1.2444882 -0.0080445497 
   94500   0.98739204   0.99982411            0    1.2219873  0.017071373 
   94800   0.83529752   0.99982411            0    1.1877661  0.011039682 
   95100   0.93601284   0.99982411            0     1.210427 -0.027583002 
   95400   0.98978632   0.99982411            0     1.222526 -0.0038501306 
   95700    0.7452761   0.99982411            0    1.1675112 -0.024290836 
   96000    1.7372778   0.99982411            0    1.3907116 0.0099421115 
   96300    2.2623402   0.99982411            0    1.5088507 0.0077847278 
   96600    1.4445054   0.99982411            0    1.3248378  0.023383679 
   96900   0.68048196   0.99982411            0    1.1529326 -0.0014261479 
   97200    1.5399751   0.99982411            0    1.3463185 -0.020552819 
   97500   0.62598146   0.99982411            0    1.1406699  0.006214188 
   97800    1.1328839   0.99982411            0     1.254723   0.04921343 
   98100   0.79976036   0.99982411            0    1.1797702 -0.019941142 
   98400   0.65049588   0.99982411            0    1.1461857 -0.0047229684 
   98700   0.96428222   0.99982411            0    1.2167876 -0.030131951 
   99000    1.0372176   0.99982411            0    1.2331981 -0.033381882 
   99300     0.785328   0.99982411            0    1.1765229 -0.017825433 
   99600    1.4382551   0.99982411            0    1.3234315 -0.042453131 
   99900   0.46047034   0.99982411            0    1.1034299 0.0063391699 
  100200   0.43067428   0.99982411            0    1.0967258 -0.019588667 
  100500    1.0787103   0.99982411            0    1.2425339 -0.0013384351 
  100800    1.2368965   0.99982411            0    1.2781258  0.048626598 
  101100   0.96394254   0.99982411            0    1.2167112 -0.027951425 
  101400   0.57435469   0.99982411            0    1.1290539  0.033916484 
  101700    1.4571596   0.99982411            0     1.327685  0.025166854 
  102000    1.3033509   0.99982411            0    1.2930781 -0.019013813 
  102300    1.0174114   0.99982411            0    1.2287417 -0.012903727 
  102600   0.88534682   0.99982411            0    1.1990271 -0.030502768 
  102900   0.72741916   0.99982411            0    1.1634934 -0.018155502 
  103200    1.5365963   0.99982411            0    1.3455583 -0.001023628 
  103500    1.8919352   0.99982411            0    1.4255095 -0.0017247113 
  103800     1.033772   0.99982411            0    1.2324228 -0.010548997 
  104100   0.70458453   0.99982411            0    1.1583556 -0.0063437311 
  104400   0.92803197   0.99982411            0    1.2086313  0.025301846 
  104700   0.97694057   0.99982411            0    1.2196357  -0.01929231 
  105000    1.0439917   0.99982411            0    1.2347222 -0.022598015 
  105300    1.4457254   0.99982411            0    1.3251123 0.00014084744 
  105600     1.434253   0.99982411            0     1.322531  0.011248918 
  105900   0.96381667   0.99982411            0    1.2166829 -0.021578734 
  106200   0.77501529   0.99982411            0    1.1742026 -0.0086754462 
  106500   0.51692935   0.99982411            0    1.1161332 -0.019603227 
  106800   0.68827413   0.99982411            0    1.1546858 0.0033234312 
  107100   0.47345703   0.99982411            0    1.1063519  0.024314096 
  107400   0.91576952   0.99982411            0    1.2058723  0.015691105 
  107700    1.1079677   0.99982411            0    1.2491168 -0.028091513 
  108000   0.94047353   0.99982411            0    1.2114307  0.029976416 
  108300     1.713504   0.99982411            0    1.3853625  0.015331877 
  108600    1.0575516   0.99982411            0    1.2377732    0.0201969 
  108900    1.2039776   0.99982411            0    1.2707191 0.0012983788 
  109200   0.75403466   0.99982411            0    1.1694819 -0.017648755 
  109500    1.3611874   0.99982411            0    1.3060913 -0.0097412183 
  109800    1.3920571   0.99982411            0     1.313037 -0.022039152 
  110100     1.711462   0.99982411            0    1.3849031 -0.0087706446 
  110400    1.6849776   0.99982411            0    1.3789441  0.018909412 
  110700    1.3948433   0.99982411            0    1.3136638 -0.031295609 
  111000   0.72553226   0.99982411            0    1.1630689  0.025834901 
  111300   0.83238788   0.99982411            0    1.1871114  0.016442395 
  111600    1.3564428   0.99982411            0    1.3050237 -0.027127589 
  111900   0.94099527   0.99982411            0     1.211548  0.011143956 
  112200   0.95680902   0.99982411            0    1.2151061  0.019890051 
  112500   0.94376582   0.99982411            0    1.2121714 -0.017437097 
  112800   0.56938389   0.99982411            0    1.1279355 -0.013332485 
  113100   0.79091315   0.99982411            0    1.1777796 -0.0045150565 
  113400    1.2515179   0.99982411            0    1.2814156 -0.025245643 
  113700    2.0895885   0.99982411            0    1.4699815 -0.050489123 
  114000    1.5807446   0.99982411            0    1.3554917 0.0053460974 
  114300    1.9267372   0.99982411            0      1.43334 -0.002628026 
  114600    1.7842094   0.99982411            0    1.4012712 -0.011937936 
  114900    2.5766037   0.99982411            0    1.5795599 -0.026098967 
  115200    1.8605615   0.99982411            0    1.4184505  -0.03073423 
  115500    1.5718664   0.99982411            0    1.3534941 0.0006308644 
  115800    1.3670679   0.99982411            0    1.3074144 0.0006258141 
  116100    2.0144438   0.99982411            0     1.453074  0.022681946 
  116400    2.0142271   0.99982411            0    1.4530252 -0.0031488325 
  116700    1.5068072   0.99982411            0    1.3388557  -0.01081586 
  117000    1.6301015   0.99982411            0    1.3665969 -0.0079568974 
  117300    1.9331235   0.99982411            0    1.4347769 -0.011832683 
  117600    1.4803855   0.99982411            0    1.3329108 -0.046126216 
  117900    1.2941689   0.99982411            0    1.2910121 -0.0049062195 
  118200    1.9390505   0.99982411            0    1.4361105    0.0177016 
  118500    1.6530913   0.99982411            0    1.3717697  0.020448419 
  118800   0.89989224   0.99982411            0    1.2022999 0.0060097126 
  119100     0.511575   0.99982411            0    1.1149285  0.025755237 
  119400    1.1395051   0.99982411            0    1.2562128 -0.0020586263 
  119700    0.9174896   0.99982411            0    1.2062593 -0.014494017 
  120000   0.34001843   0.99982411            0    1.0763283 0.00099938238 
  120300    1.4162549   0.99982411            0    1.3184815 -0.0014747113 
  120600    1.3855605   0.99982411            0    1.3115752  0.030534133 
  120900    1.7075857   0.99982411            0    1.3840309  0.026780272 
  121200    1.5491625   0.99982411            0    1.3483857  0.031851092 
  121500    1.5012814   0.99982411            0    1.3376124 0.0003619657 
  121800    1.5261949   0.99982411            0     1.343218  0.012192094 
  122100    1.3265796   0.99982411            0    1.2983045 -0.0083517992 
  122400    1.0992808   0.99982411            0    1.2471623   0.01541084 
  122700     2.011596   0.99982411            0    1.4524332 -0.025762311 
  123000    1.7693485   0.99982411            0    1.3979275 0.0094785855 
  123300    1.4230931   0.99982411            0    1.3200201 -0.0068848234 
  123600    1.3177508   0.99982411            0    1.2963181 -0.012030219 
  123900    1.1811239   0.99982411            0     1.265577 -0.023238408 
  124200    2.2320207   0.99982411            0    1.5020288 0.00040620917 
  124500    1.5077094   0.99982411            0    1.3390587 -0.016338806 
  124800    2.1199349   0.99982411            0    1.4768095 -0.011409655 
  125100    1.9112318   0.99982411            0    1.4298513  0.062481905 
  125400    1.4610311   0.99982411            0    1.3285561  0.054552967 
  125700    2.0286497   0.99982411            0    1.4562703  0.028371384 
  126000   0.61901722   0.99982411            0     1.139103 0.0018312973 
  126300   0.90876591   0.99982411            0    1.2042964 -0.022455113 
  126600    1.0350084   0.99982411            0     1.232701 -0.025047479 
  126900   0.75416706   0.99982411            0    1.1695117 -0.017152411 
  127200    1.1672609   0.99982411            0    1.2624578 -0.0063980838 
  127500    1.1860807   0.99982411            0    1.2666923  0.016033927 
  127800    1.2423263   0.99982411            0    1.2793475 7.3772454e-06 
  128100    1.4832816   0.99982411            0    1.3335625 -0.0057180411 
  128400   0.85104134   0.99982411            0    1.1913084 -0.0007409971 
  128700    1.3021789   0.99982411            0    1.2928144  -0.02936813 
  129000   0.32599825   0.99982411            0    1.0731737  0.033413279 
  129300   0.47987618   0.99982411            0    1.1077963 -0.0060162812 
  129600   0.30071108   0.99982411            0    1.0674841 -0.036567693 
  129900    0.9528537   0.99982411            0    1.2142162  0.067116973 
  130200    1.2730185   0.99982411            0    1.2862533  0.026719805 
  130500    1.0256831   0.99982411            0    1.2306028  0.025505492 
  130800   0.89574051   0.99982411            0    1.2013657 -0.017656136 
  131100    1.7933887   0.99982411            0    1.4033366 -0.0051914414 
  131400    1.6348752   0.99982411            0     1.367671  0.037486812 
  131700    2.1028128   0.99982411            0     1.472957 -0.0084219499 
  132000    1.7648408   0.99982411            0    1.3969133 -0.0098365832 
  132300    1.9141861   0.99982411            0     1.430516  0.012875415 
  132600    1.3564525   0.99982411            0    1.3050259 0.0038172169 
  132900    1.3924693   0.99982411            0    1.3131297  0.022835962 
  133200    1.5726709   0.99982411            0    1.3536751 0.0075802935 
  133500     1.302283   0.99982411            0    1.2928378 0.0090197876 
  133800   0.66950844   0.99982411            0    1.1504635 -0.024796858 
  134100    0.7007106   0.99982411            0     1.157484 -0.047877996 
  134400   0.75280902   0.99982411            0    1.1692061 -0.014048436 
  134700   0.71602169   0.99982411            0     1.160929   0.05238453 
  135000    0.5715015   0.99982411            0     1.128412  0.024133162 
  135300   0.48930308   0.99982411            0    1.1099173  0.021476137 
  135600    1.0232356   0.99982411            0    1.2300521 -0.019883584 
  135900   0.90027657   0.99982411            0    1.2023863 0.0085579916 
  136200    1.0673991   0.99982411            0    1.2399889 -0.0023640799 
  136500   0.57415192   0.99982411            0    1.1290083 -0.045228337 
  136800   0.54890111   0.99982411            0    1.1233269  0.013999865 
  137100   0.69476123   0.99982411            0    1.1561454  0.003375804 
  137400   0.59106588   0.99982411            0    1.1328139 -0.016391724 
  137700   0.84225368   0.99982411            0    1.1893312 -0.038196967 
  138000     1.369908   0.99982411            0    1.3080534  0.020041595 
  138300    1.3472517   0.99982411            0    1.3029557 -0.028801275 
  138600    1.6588032   0.99982411            0    1.3730548  0.033956981 
  138900    1.4407321   0.99982411            0    1.3239888 0.0078292049 
  139200    1.9284193   0.99982411            0    1.4337184 -0.012391433 
  139500    1.2380983   0.99982411            0    1.2783962 -0.0034167009 
  139800    1.1862877   0.99982411            0    1.2667388  0.012871943 
  140100    0.5781504   0.99982411            0     1.129908  -0.01839171 
  140400    0.7043424   0.99982411            0    1.1583012 -0.015523595 
  140700   0.53030345   0.99982411            0    1.1191424 -0.019738986 
  141000   0.75757018   0.99982411            0    1.1702774 -0.029591274 
  141300   0.95550402   0.99982411            0    1.2148125  0.020319314 
  141600   0.68996173   0.99982411            0    1.1550655  0.017887756 
  141900     1.134799   0.99982411            0    1.2551539  -0.04229268 
  142200    1.7217101   0.99982411            0    1.3872089  0.030286133 
  142500    1.1291895   0.99982411            0    1.2538918 -0.048793492 
  142800    1.4444388   0.99982411            0    1.3248229  -0.02272643 
  143100    2.3350213   0.99982411            0    1.5252039 -0.053968705 
  143400    1.8693128   0.99982411            0    1.4204195 -0.026718602 
  143700    1.2494504   0.99982411            0    1.2809504 -0.020062819 
  144000    1.8500029   0.99982411            0    1.4160748  0.023723537 
  144300    1.5980909   0.99982411            0    1.3593946 -0.041128961 
  144600    2.3638761   0.99982411            0    1.5316962  0.022775448 
  144900    1.8176361   0.99982411            0    1.4087922 0.0026054979 
  145200    1.4011635   0.99982411            0    1.3150859  0.023167158 
  145500   0.81976532   0.99982411            0    1.1842713  0.035032906 
  145800   0.96172209   0.99982411            0    1.2162116  0.063666291 
  146100    1.4020461   0.99982411            0    1.3152845 -0.004148346 
  146400    0.3761858   0.99982411            0    1.0844659   0.02439398 
  146700   0.79874026   0.99982411            0    1.1795407 -0.013758593 
  147000    1.2558951   0.99982411            0    1.2824005    0.0413703 
  147300    1.5087797   0.99982411            0    1.3392995 -0.012033827 
  147600    1.5847066   0.99982411            0    1.3563831 -0.00013911314 
  147900    1.7327815   0.99982411            0       1.3897 -0.012588422 
  148200    2.3717698   0.99982411            0    1.5334723 0.00031979184 
  148500    1.2968382   0.99982411            0    1.2916127 -0.040588266 
  148800    1.4541989   0.99982411            0    1.3270189 0.0074398359 
  149100    2.0278895   0.99982411            0    1.4560993  0.017144011 
  149400    2.1883856   0.99982411            0    1.4922109 -0.032556719 
  149700   0.84517989   0.99982411            0    1.1899896 -0.0017417872 
  150000    1.7611963   0.99982411            0    1.3960933  0.045488453 
  150300    1.7906407   0.99982411            0    1.4027183 0.0074857725 
  150600    1.6574832   0.99982411            0    1.3727578 0.0046325173 
  150900    1.5509732   0.99982411            0    1.3487931  0.046685165 
  151200    1.2270254   0.99982411            0    1.2759048  0.033271806 
  151500    1.5567833   0.99982411            0    1.3501003 0.0027089373 
  151800    1.9821089   0.99982411            0    1.4457986  0.045622385 
  152100     1.234448   0.99982411            0    1.2775749 -0.024718063 
  152400   0.89185306   0.99982411            0    1.2004911 -0.016453451 
  152700    1.7624003   0.99982411            0    1.3963642  0.013197359 
  153000   0.93086499   0.99982411            0    1.2092687 -0.023381149 
  153300    1.1967417   0.99982411            0     1.269091 0.0084753332 
  153600   0.53178442   0.99982411            0    1.1194756  0.034015269 
  153900   0.72190704   0.99982411            0    1.1622532 -0.014552566 
  154200   0.63005331   0.99982411            0    1.1415861  -0.01872693 
  154500    1.1412199   0.99982411            0    1.2565986  0.020130829 
  154800    1.5913572   0.99982411            0    1.3578795 -0.032329073 
  155100    1.4742639   0.99982411            0    1.3315335 -0.0011441769 
  155400     1.492511   0.99982411            0    1.3356391 -0.025562792 
  155700    1.5426889   0.99982411            0    1.3469291  0.019543304 
  156000    1.0156767   0.99982411            0    1.2283514 -0.0012657689 
  156300   0.90157138   0.99982411            0    1.2026777 -0.0045633737 
  156600   0.67155188   0.99982411            0    1.1509233 -0.020954331 
  156900     0.689357   0.99982411            0    1.1549294 0.0080575307 
  157200   0.98732602   0.99982411            0    1.2219725  0.012957162 
  157500   0.71541313   0.99982411            0    1.1607921 -0.027490521 
  157800    0.7441952   0.99982411            0     1.167268 -0.0074103275 
  158100    0.7508001   0.99982411            0    1.1687541 -0.027533502 
  158400   0.91919985   0.99982411            0    1.2066441 -0.0022458754 
  158700    1.4354665   0.99982411            0    1.3228041  0.019255733 
  159000    2.0165794   0.99982411            0    1.4535545 0.0011629191 
  159300     2.417649   0.99982411            0    1.5437951  0.040392526 
  159600    2.4010396   0.99982411            0     1.540058  0.026263207 
  159900    1.0127965   0.99982411            0    1.2277033 0.0073584849 
  160200    2.1108857   0.99982411            0    1.4747734 -0.036607014 
  160500     1.784764   0.99982411            0     1.401396 0.0059151675 
  160800     1.683563   0.99982411            0    1.3786258   0.01103712 
  161100    1.9566999   0.99982411            0    1.4400816 -0.014390821 
  161400    1.4565211   0.99982411            0    1.3275414 -0.011294187 
  161700   0.99040325   0.99982411            0    1.2226648 0.0082120949 
  162000    2.4766524   0.99982411            0    1.5570709  0.033786362 
  162300    3.7606507   0.99982411            0    1.8459705   0.01091845 
  162600    2.8638931   0.99982411            0    1.6442001 -0.013454678 
  162900    1.8804402   0.99982411            0    1.4229231   0.01850999 
  163200    2.6246145   0.99982411            0    1.5903624 -0.026599226 
  163500    1.4932591   0.99982411            0    1.3358074  0.014249988 
  163800   0.59578965   0.99982411            0    1.1338768  0.012240945 
  164100   0.98392853   0.99982411            0     1.221208  0.015692264 
  164400    1.4104511   0.99982411            0    1.3171756 -0.041593454 
  164700    1.5579401   0.99982411            0    1.3503606  0.027325662 
  165000    1.1095834   0.99982411            0    1.2494804 -0.033492903 
  165300   0.97905065   0.99982411            0    1.2201105  0.013388038 
  165600    1.7411986   0.99982411            0    1.3915938 0.0026161631 
  165900    1.7293008   0.99982411            0    1.3889168  0.010676324 
  166200     1.245617   0.99982411            0    1.2800879 -0.030223603 
  166500    1.8908353   0.99982411            0    1.4252621 -0.011656139 
  166800    1.9463947   0.99982411            0    1.4377629 0.0063156453 
  167100    1.7173173   0.99982411            0    1.3862205  0.035632201 
  167400    1.1542072   0.99982411            0    1.2595207  0.038225189 
  167700    1.2502137   0.99982411            0    1.2811222 -0.0072568259 
  168000   0.47991475   0.99982411            0    1.1078049  0.031986647 
  168300    1.0111751   0.99982411            0    1.2273385  0.020310253 
  168600    1.2157654   0.99982411            0    1.2733713 -0.032184999 
  168900    1.2544473   0.99982411            0    1.2820748  0.015117452 
  169200   0.88336085   0.99982411            0    1.1985803  0.023868098 
  169500   0.41913847   0.99982411            0    1.0941303  0.039409398 
  169800   0.45833759   0.99982411            0    1.1029501   0.02133694 
  170100   0.87002955   0.99982411            0    1.1955808  0.023224614 
  170400   0.76205192   0.99982411            0    1.1712858  0.019226625 
  170700    1.0891015   0.99982411            0     1.244872 -0.0030999349 
  171000    1.6036076   0.99982411            0    1.3606358  0.021796295 
  171300    2.1382099   0.99982411            0    1.4809213 -0.021609646 
  171600    2.4126082   0.99982411            0     1.542661  0.017624416 
  171900    1.9483446   0.99982411            0    1.4382017 -0.011366081 
  172200    1.3839339   0.99982411            0    1.3112092 -0.0060853259 
  172500    1.3853208   0.99982411            0    1.3115213 -0.0058599093 
  172800   0.79340929   0.99982411            0    1.1783412 0.0016605081 
  173100   0.93063481   0.99982411            0    1.2092169 0.0084635228 
  173400   0.70071181   0.99982411            0    1.1574843    0.0190674 
  173700    1.4361794   0.99982411            0    1.3229645  0.021476348 
  174000   0.88756695   0.99982411            0    1.1995267  0.018262708 
  174300   0.47139534   0.99982411            0    1.1058881 -0.0068217788 
  174600   0.82007012   0.99982411            0    1.1843399 0.0014515373 
  174900   0.52258236   0.99982411            0    1.1174051 -0.0045281357 
  175200    1.0783273   0.99982411            0    1.2424478 0.0045371632 
  175500    1.7557714   0.99982411            0    1.3948727 -0.0021880573 
  175800    1.0469226   0.99982411            0    1.2353817 -0.022497801 
  176100   0.66345197   0.99982411            0    1.1491008  -0.01684512 
  176400    1.3329633   0.99982411            0    1.2997408 -0.013470999 
  176700    1.2702818   0.99982411            0    1.2856375 -0.0098019358 
  177000    1.4248663   0.99982411            0     1.320419 -0.00087496483 
  177300   0.89736326   0.99982411            0    1.2017308 -0.0068677497 
  177600    1.2619848   0.99982411            0    1.2837707  0.031098151 
  177900    1.4577851   0.99982411            0    1.3278258 -0.011408544 
  178200    1.4874626   0.99982411            0    1.3345032 0.0027903896 
  178500    1.0751865   0.99982411            0    1.2417411 -0.023600676 
  178800     1.007185   0.99982411            0    1.2264407  0.015191362 
  179100   0.78343405   0.99982411            0    1.1760968 -0.017817025 
  179400    0.9909833   0.99982411            0    1.2227954 -0.031933808 
  179700    1.0456409   0.99982411            0    1.2350933 0.0004025002 
  180000    1.0686894   0.99982411            0    1.2402792 -0.0079552705 
  180300    1.1404224   0.99982411            0    1.2564192 -0.0076944843 
  180600    1.1337573   0.99982411            0    1.2549195 -0.046066429 
  180900    1.0438531   0.99982411            0    1.2346911 0.0014243023 
  181200    1.2919722   0.99982411            0    1.2905179 0.0030658999 
  181500   0.61342733   0.99982411            0    1.1378453 0.0069980679 
  181800    0.7780136   0.99982411            0    1.1748772 -0.0088270922 
  182100    1.6550043   0.99982411            0    1.3722001  0.036984692 
  182400    1.9070352   0.99982411            0     1.428907 -0.043829197 
  182700    2.0328374   0.99982411            0    1.4572125 -0.020765283 
  183000    1.3178851   0.99982411            0    1.2963483 0.0040026851 
  183300    1.5564107   0.99982411            0    1.3500165   0.03861887 
  183600    1.9534297   0.99982411            0    1.4393458 -0.058081116 
  183900    1.2448921   0.99982411            0    1.2799248 -0.022684971 
  184200    1.2956242   0.99982411            0    1.2913396 -0.0078230225 
  184500   0.99214162   0.99982411            0     1.223056  0.012822771 
  184800   0.79200321   0.99982411            0    1.1780248 0.0030886526 
  185100    1.6023614   0.99982411            0    1.3603554 -0.0023458402 
  185400    1.1426846   0.99982411            0    1.2569282   -0.0161826 
  185700   0.26049051   0.99982411            0    1.0584345 -0.012408651 
  186000   0.41793543   0.99982411            0    1.0938596  0.024536743 
  186300    1.3375183   0.99982411            0    1.3007657 -0.0026738791 
  186600    1.4487343   0.99982411            0    1.3257893 -0.031926418 
  186900    1.2080583   0.99982411            0    1.2716372 -0.022835123 
  187200    1.3990766   0.99982411            0    1.3146164 -0.035123106 
  187500    1.5577746   0.99982411            0    1.3503234 -0.0074935664 
  187800    2.1457615   0.99982411            0    1.4826204 -0.035293702 
  188100    1.8109191   0.99982411            0    1.4072809 -0.024560546 
  188400   0.94846104   0.99982411            0    1.2132278  0.005414651 
  188700    0.9175927   0.99982411            0    1.2062825 0.0060915913 
  189000    1.3855166   0.99982411            0    1.3115654 -0.0010415348 
  189300    1.2234976   0.99982411            0    1.2751111 -0.0098561296 
  189600   0.95249241   0.99982411            0    1.2141349 -0.027294282 
  189900    1.9222446   0.99982411            0    1.4323291 -0.018076235 
  190200    1.5401785   0.99982411            0    1.3463643 -0.024989081 
  190500    2.0607827   0.99982411            0    1.4635002 -0.0077597399 
  190800    2.0528013   0.99982411            0    1.4617044 -0.011952967 
  191100    1.6713086   0.99982411            0    1.3758685  0.005386547 
  191400    1.7113715   0.99982411            0    1.3848827  0.018745704 
  191700    1.4665433   0.99982411            0    1.3297964  0.047328726 
  192000    1.1084216   0.99982411            0     1.249219 -0.011138907 
  192300    2.5390506   0.99982411            0    1.5711105 0.0058875186 
  192600    2.2531112   0.99982411            0    1.5067741 -0.00063831495 
  192900    2.6359491   0.99982411            0    1.5929127 -0.019043887 
  193200    1.8419601   0.99982411            0    1.4142651 0.0011950447 
  193500    0.9889005   0.99982411            0    1.2223267  0.012128174 
  193800    1.5146478   0.99982411            0    1.3406199  0.015029077 
  194100    1.8741443   0.99982411            0    1.4215066 -0.027618978 
  194400    1.9728909   0.99982411            0    1.4437246 -0.010387768 
  194700    1.3885307   0.99982411            0    1.3122435 -0.0049485682 
  195000    1.0477505   0.99982411            0     1.235568  0.010347836 
  195300    1.5383072   0.99982411            0    1.3459432 -0.0017625197 
  195600    1.6713711   0.99982411            0    1.3758826  0.033670253 
  195900    1.3326226   0.99982411            0    1.2996642  0.039410834 
  196200    1.2798075   0.99982411            0    1.2877808 -0.00057569052 
  196500   0.96546061   0.99982411            0    1.2170528 0.0088277367 
  196800    1.3388919   0.99982411            0    1.3010748 -0.0006798357 
  197100    0.4924064   0.99982411            0    1.1106156  0.012439637 
  197400   0.76141732   0.99982411            0     1.171143  0.010762484 
  197700   0.66790607   0.99982411            0     1.150103  0.033208131 
  198000   0.92975669   0.99982411            0    1.2090194 -0.013440841 
  198300   0.74416672   0.99982411            0    1.1672616 -0.0056097471 
  198600   0.75810865   0.99982411            0    1.1703986  0.023460463 
  198900    1.1726908   0.99982411            0    1.2636795 -0.030844277 
  199200    1.7017521   0.99982411            0    1.3827183 -0.0071271352 
  199500    1.5046249   0.99982411            0    1.3383647 -0.00010437518 
  199800    1.2874694   0.99982411            0    1.2895047 -0.032755954 
  200100    1.7347449   0.99982411            0    1.3901417  0.025277493 
  200400    1.8233714   0.99982411            0    1.4100827 0.0050010463 
  200700     1.247391   0.99982411            0    1.2804871 0.0086468515 
  201000    2.3720965   0.99982411            0    1.5335458 -0.021759493 
  201300    1.9596611   0.99982411            0    1.4407479  0.040246163 
  201600    1.9524819   0.99982411            0    1.4391326  0.034592854 
  201900    1.3902429   0.99982411            0    1.3126288 -0.011827798 
  202200    1.0151987   0.99982411            0    1.2282438 0.0062228967 
  202500    1.9588706   0.99982411            0      1.44057  0.038301251 
  202800    1.8901647   0.99982411            0    1.4251112 -0.0043064787 
  203100    1.5455045   0.99982411            0    1.3475626 -0.0095578294 
  203400    2.0117664   0.99982411            0    1.4524715 0.0020346201 
  203700    1.9900304   0.99982411            0     1.447581 -0.0064557158 
  204000    1.9916837   0.99982411            0    1.4479529  0.024245482 
  204300    1.3460527   0.99982411            0     1.302686 -0.027121706 
  204600    1.0499213   0.99982411            0    1.2360564 -5.3370576e-05 
  204900    1.6572765   0.99982411            0    1.3727113  0.023705518 
  205200    1.6572743   0.99982411            0    1.3727108  0.038738748 
  205500    1.9335014   0.99982411            0    1.4348619  0.024348173 
  205800    1.8581854   0.99982411            0    1.4179158 -0.029945433 
  206100    1.6901236   0.99982411            0    1.3801019 -0.026714806 
  206400    1.9883663   0.99982411            0    1.4472065 0.0031120569 
  206700    1.9971344   0.99982411            0    1.4491793 -0.0031501449 
  207000    2.8752728   0.99982411            0    1.6467605 -0.013946661 
  207300    2.2739408   0.99982411            0    1.5114608 -0.032125362 
  207600    1.8541663   0.99982411            0    1.4170115 -0.0047153437 
  207900     2.646162   0.99982411            0    1.5952106 -0.00085213849 
  208200    2.3358782   0.99982411            0    1.5253967 0.00092070673 
  208500    1.5634765   0.99982411            0    1.3516063 -0.0098140021 
  208800    1.7019444   0.99982411            0    1.3827616  0.020926178 
  209100    1.9772155   0.99982411            0    1.4446976 -0.014357201 
  209400    1.2182165   0.99982411            0    1.2739228  0.059084151 
  209700    2.6536771   0.99982411            0    1.5969015 -0.052944234 
  210000    2.6635799   0.99982411            0    1.5991296  0.019603589 
  210300    2.9285061   0.99982411            0     1.658738 -0.022629826 
  210600    2.6293357   0.99982411            0    1.5914247 -0.0041661621 
  210900    2.1294583   0.99982411            0    1.4789522  0.012538457 
  211200    1.4668181   0.99982411            0    1.3298582  0.023067512 
  211500    1.0161891   0.99982411            0    1.2284667 -0.0077971657 
  211800    1.3341271   0.99982411            0    1.3000027  0.014029239 
  212100    1.1817973   0.99982411            0    1.2657285 -0.00041182107 
  212400   0.72740611   0.99982411            0    1.1634905 0.0087079267 
  212700    1.2287483   0.99982411            0    1.2762925 -0.0092478398 
  213000   0.80008787   0.99982411            0    1.1798439   -0.0160352 
  213300    1.2504523   0.99982411            0    1.2811759 -0.010033659 
  213600    1.3643314   0.99982411            0    1.3067987 -0.026481053 
  213900    1.4797983   0.99982411            0    1.3327787 -0.012068806 
  214200    1.7680537   0.99982411            0    1.3976362  0.034187033 
  214500    1.4538099   0.99982411            0    1.3269314  0.014309998 
  214800   0.73314137   0.99982411            0    1.1647809  0.036610332 
  215100    1.2723954   0.99982411            0    1.2861131  0.011333643 
  215400    1.3700337   0.99982411            0    1.3080817  0.027231657 
  215700    1.8815547   0.99982411            0    1.4231739 -0.039574352 
  216000    1.6993134   0.99982411            0    1.3821696 -0.00013140128 
  216300    1.2685815   0.99982411            0    1.2852549 -0.034013001 
  216600    1.6598516   0.99982411            0    1.3732907   -0.0253867 
  216900   0.73299904   0.99982411            0    1.1647489 -0.003075177 
  217200   0.94669006   0.99982411            0    1.2128294 -0.0094330304 
  217500   0.69904152   0.99982411            0    1.1571085 -0.0075374714 
  217800   0.88330914   0.99982411            0    1.1985687  0.011351138 
  218100   0.81238988   0.99982411            0    1.1826118   0.01815419 
  218400    1.1822126   0.99982411            0     1.265822  0.021615365 
  218700    2.0774426   0.99982411            0    1.4672487 -0.0022792899 
  219000    2.4350502   0.99982411            0    1.5477104  0.023402356 
  219300     1.637059   0.99982411            0    1.3681624 -0.0027804996 
  219600    1.0149101   0.99982411            0    1.2281789 -0.011868066 
  219900    1.4773516   0.99982411            0    1.3322282  0.024096637 
  220200    1.5398832   0.99982411            0    1.3462978  0.019847955 
  220500    1.8056318   0.99982411            0    1.4060913 -0.0061195576 
  220800    1.6661332   0.99982411            0    1.3747041 -0.031738076 
  221100    2.2841169   0.99982411            0    1.5137504  0.021207304 
  221400     2.127289   0.99982411            0    1.4784641 -0.0041755678 
  221700    2.6418935   0.99982411            0    1.5942502 -0.026090469 
  222000    1.8944917   0.99982411            0    1.4260847 -0.016243063 
  222300    1.2840875   0.99982411            0    1.2887438  0.021580946 
  222600    1.6823654   0.99982411            0    1.3783563 0.0057799202 
  222900    1.2581979   0.99982411            0    1.2829186 -0.016389724 
  223200    1.3706588   0.99982411            0    1.3082224 0.00073400807 
  223500    1.5332594   0.99982411            0    1.3448075 -0.0011093956 
  223800    1.4969202   0.99982411            0    1.3366312 -0.016450733 
  224100    1.6748106   0.99982411            0    1.3766565  -0.04835374 
  224400    1.2722043   0.99982411            0    1.2860701 -0.024127216 
  224700   0.86179394   0.99982411            0    1.1937277  0.011866539 
  225000    1.3717843   0.99982411            0    1.3084756 -0.00074670124 
  225300    1.2865917   0.99982411            0    1.2893072 0.0053435718 
  225600    1.8995433   0.99982411            0    1.4272214 -0.0074304115 
  225900    1.7273878   0.99982411            0    1.3884864 0.0073306175 
  226200    1.7553978   0.99982411            0    1.3947886 0.0040249932 
  226500    1.9065428   0.99982411            0    1.4287962  0.028211239 
  226800   0.99590941   0.99982411            0    1.2239037 -0.0085965725 
  227100    1.2848981   0.99982411            0    1.2889262 -0.033223771 
  227400   0.64894997   0.99982411            0    1.1458379  0.046554142 
  227700   0.77424367   0.99982411            0    1.1740289 0.0033458953 
  228000   0.61844595   0.99982411            0    1.1389745 -0.055980111 
  228300    1.5230478   0.99982411            0    1.3425099 -0.024596016 
  228600    2.1240726   0.99982411            0    1.4777405 -0.0056050306 
  228900    3.1079049   0.99982411            0    1.6991027 -0.011043145 
  229200    2.3889014   0.99982411            0    1.5373269  0.018761244 
  229500    1.6378989   0.99982411            0    1.3683514   0.02360377 
  229800    1.9942633   0.99982411            0    1.4485334  0.017540457 
  230100    2.3667332   0.99982411            0    1.5323391  0.018522003 
  230400    1.3781941   0.99982411            0    1.3099178  0.022247992 
  230700     1.688052   0.99982411            0    1.3796358 -0.014661076 
  231000   0.89170372   0.99982411            0    1.2004574 -0.060398947 
  231300    1.2044798   0.99982411            0    1.2708321  0.022510241 
  231600   0.84628996   0.99982411            0    1.1902394  0.014453195 
  231900    1.1128186   0.99982411            0    1.2502083 0.0015052879 
  232200    1.3407241   0.99982411            0     1.301487 -0.0039087122 
  232500     1.484618   0.99982411            0    1.3338632 -0.017270011 
  232800    1.3510193   0.99982411            0    1.3038035 -0.011181061 
  233100    1.8255836   0.99982411            0    1.4105804  0.027089747 
  233400     1.798682   0.99982411            0    1.4045276  0.013553633 
  233700   0.88855669   0.99982411            0    1.1997494  0.006445605 
  234000    1.0305293   0.99982411            0    1.2316932 -0.0025739676 
  234300    1.1034591   0.99982411            0    1.2481024  0.021265512 
  234600   0.50020739   0.99982411            0    1.1123708 -0.020238878 
  234900    1.1699975   0.99982411            0    1.2630735  0.009254545 
  235200    1.3623966   0.99982411            0    1.3063634  -0.03113688 
  235500   0.74957692   0.99982411            0    1.1684789 -0.020133345 
  235800    1.0499425   0.99982411            0    1.2360612 -0.038261855 
  236100    1.1437245   0.99982411            0    1.2571621 -0.034758934 
  236400    1.5069623   0.99982411            0    1.3388906  -0.01093434 
  236700   0.92060721   0.99982411            0    1.2069607 -0.011150522 
  237000   0.70041457   0.99982411            0    1.1574174 0.00049415126 
  237300   0.53428222   0.99982411            0    1.1200376 -0.020634269 
  237600   0.80298967   0.99982411            0    1.1804968 -0.0057213072 
  237900   0.50224898   0.99982411            0    1.1128301 0.0041106007 
  238200    1.4892927   0.99982411            0     1.334915 -0.00037170428 
  238500    1.2108884   0.99982411            0     1.272274  0.056562703 
  238800    1.8712861   0.99982411            0    1.4208635 -0.025273518 
  239100     1.375276   0.99982411            0    1.3092612 -0.0050576105 
  239400    1.0833149   0.99982411            0      1.24357  0.020358048 
  239700   0.91352247   0.99982411            0    1.2053667 -0.0037108005 
  240000   0.88727536   0.99982411            0    1.1994611 -0.016739663 
  240300   0.58792674   0.99982411            0    1.1321076 -0.0020064686 
  240600   0.97755679   0.99982411            0    1.2197744 -0.014491328 
  240900    1.3867047   0.99982411            0    1.3118327  0.022129008 
  241200    1.2032218   0.99982411            0     1.270549 0.0083480092 
  241500    1.6199424   0.99982411            0    1.3643112 -0.050966527 
  241800    1.5835333   0.99982411            0    1.3561191 -0.021450298 
  242100    2.1413776   0.99982411            0    1.4816341  0.034812179 
  242400    1.9670051   0.99982411            0    1.4424003 -0.029091712 
  242700   0.94466165   0.99982411            0     1.212373 -0.034164782 
  243000    0.9389543   0.99982411            0    1.2110888 -0.0096989483 
  243300    2.2179496   0.99982411            0    1.4988628  0.011761475 
  243600    2.3776031   0.99982411            0    1.5347848 0.0020937985 
  243900    2.7040717   0.99982411            0    1.6082403 -0.010089534 
  244200     2.363993   0.99982411            0    1.5317225   0.01559155 
  244500    1.3844415   0.99982411            0    1.3113234  0.020352644 
  244800    2.2736125   0.99982411            0    1.5113869 -0.007336679 
  245100    1.5605808   0.99982411            0    1.3509548 -0.0086617834 
  245400    2.0143416   0.99982411            0     1.453051 -0.015608741 
  245700     1.193587   0.99982411            0    1.2683812 0.0081386117 
  246000   0.94836859   0.99982411            0     1.213207  0.039702412 
  246300     0.667633   0.99982411            0    1.1500415  -0.04368718 
  246600    1.4817307   0.99982411            0    1.3332135   0.04274288 
  246900   0.80196208   0.99982411            0    1.1802656 -0.00091576523 
  247200   0.87037153   0.99982411            0    1.1956577 -0.013943737 
  247500    1.3021097   0.99982411            0    1.2927988  0.015957502 
  247800    1.3819902   0.99982411            0    1.3107719 0.00030479756 
  248100    1.6481726   0.99982411            0    1.3706629   0.01168006 
  248400    1.2137767   0.99982411            0    1.2729239  0.021940137 
  248700    1.4390146   0.99982411            0    1.3236024 -0.033000725 
  249000    1.4633217   0.99982411            0    1.3290715 0.0039167585 
  249300     1.813889   0.99982411            0    1.4079491  -0.02589916 
  249600    2.0837273   0.99982411            0    1.4686628 0.0023712699 
  249900   0.85345855   0.99982411            0    1.1918523   0.02856417 
  250000    1.0729407   0.99982411            0    1.2412358 -0.006260914 
Loop time of 0.877728 on 1 procs for 250000 steps with 20 atoms

Performance: 24608990.894 tau/day, 284826.283 timesteps/s
97.6% CPU use with 1 MPI tasks x no OpenMP threads

MPI task timing breakdown:
Section |  min time  |  avg time  |  max time  |%varavg| %total
---------------------------------------------------------------
Pair    | 0.042724   | 0.042724   | 0.042724   |   0.0 |  4.87
Bond    | 0.014908   | 0.014908   | 0.014908   |   0.0 |  1.70
Neigh   | 0.0059183  | 0.0059183  | 0.0059183  |   0.0 |  0.67
Comm    | 0.050394   | 0.050394   | 0.050394   |   0.0 |  5.74
Output  | 0.048241   | 0.048241   | 0.048241   |   0.0 |  5.50
Modify  | 0.64302    | 0.64302    | 0.64302    |   0.0 | 73.26
Other   |            | 0.07252    |            |       |  8.26

Nlocal:    20 ave 20 max 20 min
Histogram: 1 0 0 0 0 0 0 0 0 0
Nghost:    10 ave 10 max 10 min
Histogram: 1 0 0 0 0 0 0 0 0 0
Neighs:    8 ave 8 max 8 min
Histogram: 1 0 0 0 0 0 0 0 0 0

Total # of neighbors = 8
Ave neighs/atom = 0.4
Ave special neighs/atom = 0
Neighbor list builds = 627
Dangerous builds = 0
Total wall time: 0:00:00
