LAMMPS (17 Nov 2016)
#added some comments, visualise the oputput with "vmd test.xyz -e vmd_script"

units				lj 							#reduced MD units
atom_style			full  					#format of the configurational input
#bond_style     		harmonic
boundary 			p p p 				   		#periodic boundaries in all directions
atom_modify			sort 0 1   					#format of the output
read_data			lammps.data  					#file from which the initial configuraiton, bonds, and angles are read
  orthogonal box = (-50 -50 -50) to (50 50 50)
  1 by 1 by 1 MPI processor grid
  reading atoms ...
  3000 atoms
  0 = max # of 1-2 neighbors
  0 = max # of 1-3 neighbors
  0 = max # of 1-4 neighbors
  1 = max # of special neighbors
neighbor        1 bin
neigh_modify		every 1 delay 1 			#how the neighbour list is built
pair_style			lj/cut 1.3  				#define the potential and the largest cut-off in the system
pair_coeff			1 1 10 1.0 1.3 			#interactions between particles of type 1: epsilon, sigma, cut-off
pair_modify			shift yes 					#shift the potential to 0 at the cut-off to ensure continuity
#bond_coeff 			* 8 0.9
dump				0 all xyz 100 test.xyz		#write the output file in the xyz form every 100 steps
velocity 			all create 1.0 1 			#create the initail velocities, around temp=1
fix					 0 all rigid/nve molecule					#perform nve integration
100 rigid bodies with 3000 atoms
fix					3 all langevin 1 1 1 1000 	#add random noise via langevin equation of motion
thermo				300							#how often the output is written
timestep			0.001						#size of the time-step for the integration
run					500000						#run the simulation for this number of steps
Neighbor list info ...
  1 neighbor list requests
  update every 1 steps, delay 1 steps, check yes
  max neighbors/atom: 2000, page size: 100000
  master list distance cutoff = 2.3
  ghost atom cutoff = 2.3
  binsize = 1.15 -> bins = 87 87 87
Memory usage per processor = 10.8062 Mbytes
Step Temp E_pair E_mol TotEng Press 
       0    1.0029101    93.320469            0    93.403543   -11.725099 
     300      689.809   -3.3016293            0     53.83755  0.067442312 
     600    378.56351   -3.3159219            0    28.041756  0.034295177 
     900    208.71666   -3.2442793            0    14.044417  0.016265742 
    1200    116.21012   -3.3162184            0    6.3098532  0.014823191 
    1500    64.279576   -3.3174765            0     2.007015 0.0033901415 
    1800    35.600063   -3.3171681            0  -0.36829616 0.0032037161 
    2100    19.976327   -3.3183087            0    -1.663603 6.0765924e-05 
    2400    11.812093   -3.3159465            0   -2.3375115 -0.0014799315 
    2700     6.810025   -3.3166222            0   -2.7525252 -0.004191717 
    3000    4.4421008   -3.3187326            0   -2.9507786 0.0022051074 
    3300    2.8662871   -3.3170812            0   -3.0796571 0.0012275577 
    3600    1.8791802   -3.3162347            0   -3.1605759 0.00072816756 
    3900    1.5539099   -3.3167326            0    -3.188017 -0.0055602122 
    4200    1.2588514   -3.3163128            0    -3.212038 -0.0082585703 
    4500    1.2190722   -3.3163491            0   -3.2153693 0.0029474707 
    4800    1.1143115   -3.3165591            0   -3.2242569 -0.010325718 
    5100     1.078346    -3.316782            0    -3.227459 -0.0015476802 
    5400    1.0458784   -3.3169006            0    -3.230267  0.001176404 
    5700   0.93779595   -3.3170057            0   -3.2393249 0.0015225794 
    6000   0.89464699    -3.316966            0   -3.2428594 -0.0057427132 
    6300   0.91964775   -3.3171369            0   -3.2409595 -0.0045918015 
    6600   0.98786982   -3.3169402            0   -3.2351116 -0.00065509999 
    6900    1.0316072   -3.3163526            0   -3.2309011 -0.00065193545 
    7200   0.96863472   -3.3170583            0   -3.2368231 -0.010667243 
    7500   0.89945066   -3.3165668            0   -3.2420623 -0.00086168257 
    7800    0.8236363   -3.3168667            0   -3.2486422 0.0045461238 
    8100   0.89520318   -3.3178987            0   -3.2437461  0.004097702 
    8400   0.91039167   -3.3198483            0   -3.2444376 -0.0033237936 
    8700    0.9687214   -3.3190503            0   -3.2388079 0.0030665871 
    9000    1.1371544   -3.3212286            0   -3.2270343 0.0076329356 
    9300    1.0426607   -3.3203046            0   -3.2339375   0.00840146 
    9600    1.0219185   -3.3203267            0   -3.2356778 -0.0022873802 
    9900    1.0763893   -3.3219724            0   -3.2328115 -0.0041328699 
   10200   0.98831599   -3.3237098            0   -3.2418443 -0.0050230573 
   10500   0.95901721   -3.3231541            0   -3.2437156 -0.0082614494 
   10800   0.97462652   -3.3230146            0   -3.2422831 -0.0029317315 
   11100   0.99634397   -3.3236726            0   -3.2411421 -0.0092437722 
   11400    1.0305713   -3.3245977            0    -3.239232 -0.0012412304 
   11700   0.97597247    -3.324741            0    -3.243898 -0.0066614003 
   12000   0.99652576   -3.3249163            0   -3.2423707 -0.010662477 
   12300    1.0439358     -3.32573            0   -3.2392574 -0.0015214191 
   12600   0.98776739   -3.3273049            0   -3.2454849 -0.0019684405 
   12900   0.98502841   -3.3278661            0    -3.246273 -0.0076473107 
   13200   0.97212472   -3.3261105            0   -3.2455862 8.3893728e-05 
   13500   0.97785528   -3.3248034            0   -3.2438043 0.0056976063 
   13800   0.95136181   -3.3271028            0   -3.2482983 0.0060868996 
   14100   0.98240697   -3.3268595            0   -3.2454835 -0.0042953295 
   14400    0.9900968    -3.327073            0     -3.24506 -0.00040494969 
   14700    1.0523999   -3.3277331            0   -3.2405593 -0.0049320244 
   15000    1.0762368   -3.3259188            0   -3.2367705  0.000543138 
   15300    1.0980607    -3.325772            0   -3.2348159 0.0041652435 
   15600    1.0521837    -3.326161            0   -3.2390052 0.0083431005 
   15900   0.95404165   -3.3242001            0   -3.2451737 0.00023786263 
   16200    1.0077001   -3.3247683            0   -3.2412972 -0.0088919029 
   16500    1.0101442    -3.325576            0   -3.2419024 -0.0020753365 
   16800   0.96694522   -3.3259884            0   -3.2458931 -0.0065953396 
   17100    1.0290089   -3.3266086            0   -3.2413723 -0.0059317287 
   17400   0.93268037    -3.326219            0    -3.248962 0.0065199793 
   17700    1.0088315   -3.3256072            0   -3.2420423 -0.0011412324 
   18000   0.99724789   -3.3271438            0   -3.2445385 -0.0024460809 
   18300    1.0767311   -3.3270326            0   -3.2378434 0.0080980266 
   18600    1.0761575   -3.3269628            0   -3.2378211 0.0041582892 
   18900    1.0739154   -3.3271399            0    -3.238184 0.0031808501 
   19200    1.1066767   -3.3249724            0   -3.2333027 0.0028506508 
   19500   0.98385736   -3.3285078            0   -3.2470116 -0.0084697067 
   19800   0.91821957   -3.3271388            0   -3.2510796 -0.0078767177 
   20100    1.0019956    -3.328288            0   -3.2452894 -0.012722618 
   20400    1.0772982   -3.3269048            0   -3.2376686 0.00044526876 
   20700   0.96937828   -3.3273133            0   -3.2470164 0.00084788123 
   21000    1.0346539   -3.3288132            0   -3.2431093 -0.00028241216 
   21300    1.0090258   -3.3294947            0   -3.2459137 0.0006480239 
   21600   0.99733343   -3.3303978            0   -3.2477853 0.00090964172 
   21900    1.0149978   -3.3293554            0   -3.2452797 -0.0023083835 
   22200    1.1296219   -3.3346396            0   -3.2410693  0.012496054 
   22500    1.0169058   -3.3337358            0   -3.2495021 0.0036823979 
   22800   0.99609393    -3.336741            0   -3.2542312 0.00078489126 
   23100   0.98221133   -3.3341136            0   -3.2527537 -0.009011612 
   23400   0.97661975    -3.335041            0   -3.2541444 -0.0012208672 
   23700   0.96581392   -3.3353856            0    -3.255384 0.0028158204 
   24000   0.99378847    -3.335231            0   -3.2529121 -0.0015318282 
   24300    1.0528471   -3.3354771            0   -3.2482663 -0.0034359509 
   24600    1.0343961   -3.3413202            0   -3.2556378 -0.0085079767 
   24900   0.93461004   -3.3373139            0    -3.259897 -0.0092439716 
   25200   0.98440946   -3.3419697            0   -3.2604278 0.0057313498 
   25500    1.0348272   -3.3428696            0   -3.2571514 -0.0007451092 
   25800    1.0312773   -3.3448297            0   -3.2594056  0.011481104 
   26100    1.0509501   -3.3443431            0   -3.2572894 0.0029801629 
   26400    1.0088153   -3.3458399            0   -3.2622764 -0.0037939009 
   26700    1.1064645   -3.3501536            0   -3.2585015 -0.003120102 
   27000     1.264506    -3.377368            0   -3.2726247 0.00090884029 
   27300    1.1864957   -3.3759996            0   -3.2777182   0.01082396 
   27600    1.0825696   -3.3689387            0   -3.2792658 -0.011501433 
   27900    1.1853034   -3.3799264            0   -3.2817437 0.0058217054 
   28200     1.176493   -3.3800398            0    -3.282587 -0.00075814009 
   28500    1.1020682   -3.3820131            0   -3.2907251 -0.005288288 
   28800    1.1300019   -3.3867606            0   -3.2931588 0.0040556768 
   29100    1.0044597   -3.3859697            0    -3.302767 -0.002264201 
   29400    1.0339913   -3.3844656            0   -3.2988166 -0.0083398678 
   29700   0.97014475   -3.3860504            0     -3.30569 0.0024544818 
   30000   0.94856541   -3.3874166            0   -3.3088437 -0.0074025234 
   30300   0.90318268   -3.3875907            0   -3.3127771 0.00069966672 
   30600     1.002585   -3.3907055            0    -3.307658 -0.00026193001 
   30900    1.0489341   -3.3919992            0   -3.3051125 -0.0068321906 
   31200    1.0499539    -3.394027            0   -3.3070558 0.0060449315 
   31500   0.99339373   -3.3963908            0   -3.3141047 -0.0022230319 
   31800    1.0353401   -3.3965287            0    -3.310768 0.0010071505 
   32100    1.0349303   -3.3963583            0   -3.3106315 0.0082557582 
   32400    1.0826006   -3.3977976            0   -3.3081221 0.0052229803 
   32700    1.0260504   -3.3950397            0   -3.3100485 0.0017530079 
   33000   0.99758926   -3.3963108            0   -3.3136771 -0.00034735435 
   33300    1.0009334   -3.3984226            0   -3.3155119 -0.0052716306 
   33600    1.0421284   -3.3970801            0   -3.3107571 0.00039108223 
   33900   0.96514249   -3.3975431            0   -3.3175972  0.004435515 
   34200   0.89671481   -3.3972113            0   -3.3229335 -0.0010017258 
   34500    1.0219024    -3.401176            0   -3.3165284 0.0033173636 
   34800    1.0490955   -3.4014696            0   -3.3145695 -0.0033465253 
   35100   0.97592705   -3.4002797            0   -3.3194404 -0.0059084245 
   35400     0.999448   -3.4017218            0   -3.3189342 0.0010308885 
   35700    0.9777366   -3.4026997            0   -3.3217105 0.0075798727 
   36000    1.0835561   -3.4033715            0   -3.3136169 0.00041605335 
   36300    1.0396524   -3.4019401            0   -3.3158222 -0.0018543506 
   36600    1.0730343   -3.4045087            0   -3.3156257 -0.00097715141 
   36900    0.9834793   -3.4004694            0   -3.3190045 0.0087709334 
   37200   0.99338488   -3.4034457            0   -3.3211604 -0.0044506614 
   37500    1.1065327   -3.4015609            0   -3.3099031 -0.0052369507 
   37800    1.1451623    -3.402614            0   -3.3077564 -0.0012562331 
   38100    1.0629945   -3.4053836            0   -3.3173322 0.0040696352 
   38400   0.98589363   -3.4044087            0   -3.3227438 0.0033283419 
   38700   0.96806249   -3.4066196            0   -3.3264318 0.0021081052 
   39000   0.99803481   -3.4041231            0   -3.3214526 0.0067775943 
   39300   0.93801725   -3.4051691            0     -3.32747  0.013448277 
   39600    1.0666284   -3.4084892            0   -3.3201368 0.0090000169 
   39900    1.0820041   -3.4088015            0   -3.3191755 -0.0069930517 
   40200    1.0463266   -3.4074774            0   -3.3208067 -0.0058981263 
   40500    1.0642857   -3.4105199            0   -3.3223616 0.0078372718 
   40800    1.0587397    -3.410069            0   -3.3223701 0.00032272162 
   41100   0.93574098   -3.4081448            0   -3.3306343 -0.0036185104 
   41400   0.91106495   -3.4084338            0   -3.3329672 -0.003086586 
   41700   0.98325122   -3.4096138            0   -3.3281678 0.0072764038 
   42000   0.90885076   -3.4081554            0   -3.3328723 -0.0015141608 
   42300    1.0462179   -3.4061271            0   -3.3194654 -0.0014332994 
   42600    1.0861583   -3.4105027            0   -3.3205326 0.0053879811 
   42900    1.0301184   -3.4109888            0   -3.3256606 -0.0072197142 
   43200   0.92024062   -3.4090193            0   -3.3327927 -0.0057431201 
   43500   0.98586182   -3.4096079            0   -3.3279457 0.0079984248 
   43800     0.931479   -3.4069216            0   -3.3297641  0.003888401 
   44100    0.9688157   -3.4065273            0   -3.3262771 -0.0056867028 
   44400   0.99959891   -3.4087637            0   -3.3259636 0.0012353693 
   44700   0.92838708   -3.4080367            0   -3.3311353 0.0080366084 
   45000   0.96904524   -3.4072371            0   -3.3269678 0.0036213977 
   45300   0.96218925   -3.4054528            0   -3.3257514 -0.011034481 
   45600    1.0822039   -3.4076373            0   -3.3179947 -0.0043314813 
   45900    1.0649217   -3.4107109            0   -3.3224999 -0.0025489701 
   46200    1.1286917   -3.4069214            0   -3.3134282 0.00042429528 
   46500    1.0940046   -3.4095838            0   -3.3189637 -0.00059449475 
   46800    1.0182285   -3.4103895            0   -3.3260462 -0.0012192494 
   47100    1.0749309   -3.4115603            0   -3.3225202 -0.00016531049 
   47400   0.99885677   -3.4148108            0   -3.3320722 0.00092760967 
   47700   0.98916548   -3.4145354            0   -3.3325995 -0.0048563922 
   48000   0.99797701   -3.4206935            0   -3.3380278 0.0021416415 
   48300   0.97347094   -3.4248086            0   -3.3441728 -0.0038230403 
   48600    1.0065048   -3.4262785            0   -3.3429063 0.0045815562 
   48900    1.0935302   -3.4293747            0    -3.338794 0.0014799368 
   49200    1.2561018   -3.4370702            0   -3.3330231  0.002896731 
   49500    1.2644503   -3.4434981            0   -3.3387594 -0.0035146203 
   49800    1.1989299   -3.4438052            0   -3.3444939 -0.0042035294 
   50100    1.0049938   -3.4426838            0   -3.3594368 -0.0039080258 
   50400   0.98683421   -3.4383393            0   -3.3565965 0.00039620768 
   50700   0.98837982   -3.4417711            0   -3.3599003  0.012983291 
   51000    1.0331136   -3.4422204            0   -3.3566441 0.0016730344 
   51300     1.041928   -3.4438978            0   -3.3575914 -0.0041660248 
   51600    1.0965905   -3.4458354            0   -3.3550012 0.0015290843 
   51900     1.030814   -3.4442699            0   -3.3588841 -0.0004766191 
   52200   0.95534771   -3.4439442            0   -3.3648096 0.0072309753 
   52500   0.92511898   -3.4437139            0   -3.3670832 0.0039967516 
   52800    1.0128003   -3.4451868            0   -3.3612931 0.0055907013 
   53100    1.0204784   -3.4468892            0   -3.3623596 -0.0013415975 
   53400   0.98346422   -3.4463904            0   -3.3649268 -0.00053417415 
   53700   0.95135053   -3.4441772            0   -3.3653737 0.0030368157 
   54000    1.0825337   -3.4468503            0   -3.3571804  0.010192818 
   54300    1.0608794   -3.4498293            0   -3.3619531 -0.0061679022 
   54600   0.98109274   -3.4506688            0   -3.3694016 0.0072099309 
   54900    1.0083882   -3.4515521            0   -3.3680239 0.0033283813 
   55200    1.0459318   -3.4546494            0   -3.3680114 -0.00088311642 
   55500     1.046051   -3.4606715            0   -3.3740236 0.0030759648 
   55800    1.0575031   -3.4568661            0   -3.3692696 -0.0083564523 
   56100    1.0748923   -3.4589323            0   -3.3698954  0.004837636 
   56400    1.1581814   -3.4608287            0   -3.3648927 -0.0077480888 
   56700    1.1503318   -3.4593884            0   -3.3641026  0.012291654 
   57000    1.1710655   -3.4600152            0   -3.3630119 -0.0057481315 
   57300    1.0900792   -3.4589347            0   -3.3686398 -0.0013513393 
   57600    1.1283779   -3.4628672            0   -3.3693999 -0.0023758987 
   57900    1.0526668   -3.4641843            0   -3.3769884 -0.0051166778 
   58200   0.98956771   -3.4640251            0   -3.3820559 0.0030354571 
   58500     1.031336   -3.4661954            0   -3.3807664 -0.0031342114 
   58800    1.0616393    -3.469259            0   -3.3813199 -0.0047102684 
   59100    1.0451506   -3.4678833            0     -3.38131 0.0094576351 
   59400    1.0388565   -3.4698504            0   -3.3837984 0.0035592433 
   59700    1.0309483   -3.4689441            0   -3.3835472 -0.011077108 
   60000    1.0731965    -3.470945            0   -3.3820486 -0.0012861023 
   60300     1.150728   -3.4764839            0   -3.3811652 -0.0061362141 
   60600    1.3027298      -3.4936            0   -3.3856906 0.0040356858 
   60900    1.2873933   -3.5071814            0   -3.4005423 -0.0092716255 
   61200    1.1520122   -3.5096594            0   -3.4142344 -0.0081463625 
   61500    1.0878043   -3.5164128            0   -3.4263063 -0.0013118279 
   61800    1.1153476   -3.5224505            0   -3.4300626 0.0007557739 
   62100    1.0868756   -3.5161485            0   -3.4261189 -0.002381349 
   62400    1.1578487    -3.519677            0   -3.4237685 -0.007941088 
   62700   0.99834214   -3.5185564            0   -3.4358604 0.0017205784 
   63000    1.0745868   -3.5226102            0   -3.4335986 0.0061333094 
   63300    1.0793432   -3.5228187            0   -3.4334131 -0.0029906605 
   63600    1.0495722   -3.5180261            0   -3.4310865 -0.00040793049 
   63900    1.0749913   -3.5205344            0   -3.4314893 0.0092504609 
   64200    1.0420219   -3.5247466            0   -3.4384325 0.00086289858 
   64500     1.012691   -3.5254656            0    -3.441581 0.0065223824 
   64800    1.0216145   -3.5274207            0    -3.442797 -0.004107365 
   65100   0.94825588   -3.5241402            0    -3.445593 0.0075220164 
   65400    1.0495267   -3.5279737            0   -3.4410379 -0.011286663 
   65700   0.95737985   -3.5273609            0   -3.4480579 0.00099413936 
   66000   0.93195005    -3.522327            0   -3.4451305 0.0011582916 
   66300   0.94390398   -3.5263165            0   -3.4481298 0.0027018409 
   66600   0.97237327   -3.5267267            0   -3.4461818 -0.00057473447 
   66900   0.96645879   -3.5277346            0   -3.4476796 -0.00042622909 
   67200   0.92641134   -3.5274048            0   -3.4506671 0.0049450088 
   67500   0.95129737   -3.5266858            0   -3.4478867 -0.0022894134 
   67800    1.0613223   -3.5252402            0   -3.4373273 -0.010240169 
   68100    1.1186412    -3.527007            0   -3.4343462 -0.004603549 
   68400    1.0614282   -3.5240672            0   -3.4361456 -0.0021714512 
   68700    1.0158836   -3.5267347            0   -3.4425857 0.0028754055 
   69000   0.95841267   -3.5289022            0   -3.4495137 0.0047016641 
   69300    1.0056426   -3.5285986            0   -3.4452979 0.0083773361 
   69600    1.0783905   -3.5313133            0   -3.4419866 -0.014063594 
   69900    1.0136038   -3.5329726            0   -3.4490124 0.0025381401 
   70200    1.0523156   -3.5391926            0   -3.4520258 0.0062686709 
   70500    1.0458495   -3.5404927            0   -3.4538615 -0.00058271259 
   70800   0.97452854   -3.5415922            0   -3.4608687 0.0078446117 
   71100     1.147629   -3.5543878            0   -3.4593259 0.00017592925 
   71400    1.2021928   -3.5618036            0    -3.462222 -0.0051954408 
   71700    1.0510233   -3.5617604            0   -3.4747006 -0.0051117073 
   72000   0.99581018   -3.5553985            0   -3.4729123 0.00063436967 
   72300   0.97981763   -3.5594352            0   -3.4782736 0.00050857746 
   72600     1.008809   -3.5622905            0   -3.4787275   -0.0127644 
   72900    1.1277784   -3.5633756            0    -3.469958  0.007221453 
   73200    1.1214188   -3.5635819            0    -3.470691 -0.0023902477 
   73500   0.98501006   -3.5603919            0   -3.4788002 -0.0037674214 
   73800   0.97897012   -3.5590479            0   -3.4779565 -0.0039647162 
   74100    1.0579627    -3.563894            0   -3.4762594 0.0030502508 
   74400   0.96338964   -3.5649151            0   -3.4851143 -0.0060977725 
   74700   0.91894792   -3.5627519            0   -3.4866324 0.0046216813 
   75000   0.98471946   -3.5606078            0   -3.4790402 -0.0055580757 
   75300   0.99453355   -3.5618883            0   -3.4795078 -0.0015164401 
   75600    1.1319539    -3.563808            0   -3.4700445 0.0022924301 
   75900    1.0593492   -3.5633194            0     -3.47557 -0.0039723897 
   76200    1.0804245   -3.5659392            0   -3.4764441 0.0060778194 
   76500    1.1081182   -3.5648179            0   -3.4730288 -0.008577822 
   76800   0.98547464   -3.5644757            0   -3.4828456 -0.0025261947 
   77100   0.97791716   -3.5636539            0   -3.4826497 -0.0021108974 
   77400    1.1052888   -3.5624847            0     -3.47093 -0.0012253493 
   77700    1.0887009   -3.5632539            0   -3.4730732 0.0001576247 
   78000    1.0415818   -3.5625882            0   -3.4763106 0.0024934934 
   78300    1.0206161   -3.5656333            0   -3.4810923 0.0042728296 
   78600   0.99847127   -3.5669712            0   -3.4842645 -0.0057316034 
   78900    1.0466537    -3.564664            0   -3.4779661 0.0062407368 
   79200    1.1137942   -3.5659729            0   -3.4737137 0.0064336088 
   79500    1.0890424   -3.5686007            0   -3.4783917  0.012247113 
   79800    1.1064884   -3.5662867            0   -3.4746326  0.005453881 
   80100    1.0888109    -3.567404            0   -3.4772142 0.0002000497 
   80400    1.0318716   -3.5674389            0   -3.4819656 -0.010206647 
   80700    1.0178098   -3.5690338            0   -3.4847252 0.0025203307 
   81000    1.1532721   -3.5694141            0   -3.4738848 -0.0034214776 
   81300    1.1118104   -3.5687583            0   -3.4766634 0.0013213272 
   81600    1.0834195    -3.568579            0   -3.4788358 0.0029508831 
   81900    1.1096678   -3.5717084            0   -3.4797909 0.0019100485 
   82200     1.061919   -3.5706451            0   -3.4826828 -0.0032253096 
   82500    1.0940217   -3.5685575            0    -3.477936 -0.00082976306 
   82800    1.0631636   -3.5723729            0   -3.4843075 0.0015334626 
   83100    1.0313777   -3.5705262            0   -3.4850938 -0.0033443453 
   83400    1.0216077   -3.5741855            0   -3.4895623  0.001660946 
   83700   0.95970989    -3.572885            0   -3.4933891  0.008257238 
   84000   0.95044375   -3.5724872            0   -3.4937588 0.00053611771 
   84300   0.94882313   -3.5734682            0    -3.494874 -0.0013329243 
   84600   0.98827201   -3.5720617            0   -3.4901998 0.0046612919 
   84900   0.99617727   -3.5735811            0   -3.4910644 0.0015113607 
   85200    1.0083105   -3.5731858            0   -3.4896641 0.0059791915 
   85500   0.97901439   -3.5728257            0   -3.4917307 -0.00095640571 
   85800   0.98186366   -3.5745719            0   -3.4932409 -0.00039852566 
   86100   0.96504679   -3.5763377            0   -3.4963996 0.0071041007 
   86400    1.0404563   -3.5776253            0   -3.4914408 -0.010198688 
   86700    0.9832279   -3.5796224            0   -3.4981784 0.0032014153 
   87000   0.91293511   -3.5795961            0   -3.5039746 -0.0035680151 
   87300   0.93844565   -3.5812847            0   -3.5035502 -0.011174352 
   87600    1.0147256   -3.5837523            0   -3.4996992  0.010417231 
   87900    1.0079614   -3.5849878            0    -3.501495 -0.003065664 
   88200    1.0034796   -3.5836174            0   -3.5004959 0.0024330697 
   88500    1.1201306   -3.5924063            0   -3.4996222 -0.0034888898 
   88800     1.226641   -3.6021282            0   -3.5005214 0.0052333886 
   89100    1.2696916   -3.6202745            0   -3.5151017 0.0026369452 
   89400    1.2071907    -3.627944            0   -3.5279483 -0.0047497017 
   89700    1.1298513   -3.6256206            0   -3.5320313  0.010361585 
   90000    1.0533402    -3.627196            0   -3.5399443 0.0045392768 
   90300    1.1547051   -3.6335713            0   -3.5379233 0.0096151157 
   90600    1.1571175    -3.633737            0   -3.5378891 -0.00082533322 
   90900    1.2783157   -3.6356567            0   -3.5297695 0.0045853434 
   91200    1.0587444   -3.6308433            0    -3.543144 0.0030788834 
   91500    1.0986179   -3.6368545            0   -3.5458524 -0.0045100089 
   91800   0.97723905   -3.6349587            0   -3.5540108  0.010602875 
   92100   0.96447289   -3.6346461            0   -3.5547556  0.008388933 
   92400   0.96781029   -3.6404832            0   -3.5603162 -0.013006173 
   92700    1.0149976   -3.6382621            0   -3.5541865 -0.0057392946 
   93000    1.0946224   -3.6384002            0    -3.547729 0.0065163013 
   93300     1.005858    -3.638523            0   -3.5552044 -0.0021637971 
   93600   0.91174462   -3.6399682            0   -3.5644453 -0.007698314 
   93900   0.98955881   -3.6373373            0   -3.5553689 -0.0085441464 
   94200    1.0209022   -3.6384183            0   -3.5538536 -0.0042402498 
   94500   0.92622939   -3.6372462            0   -3.5605236 -0.00010098661 
   94800    0.9237754   -3.6345244            0    -3.558005 -0.002465855 
   95100   0.97663471   -3.6390887            0   -3.5581908 0.0030893423 
   95400   0.97726733   -3.6376699            0   -3.5567196 -0.006157304 
   95700    1.0002882   -3.6383846            0   -3.5555274 0.0064856413 
   96000     1.010501   -3.6409614            0   -3.5572583 0.0026889308 
   96300   0.95011403   -3.6381095            0   -3.5594084 0.0031183302 
   96600   0.99577722   -3.6412928            0   -3.5588092 -0.0061765651 
   96900     1.010583   -3.6401102            0   -3.5564002 -0.0066800822 
   97200   0.97172845   -3.6386641            0   -3.5581726  0.004274407 
   97500   0.94136074   -3.6405756            0   -3.5625996 -0.0013191064 
   97800   0.93152399   -3.6418273            0   -3.5646661 0.0084367171 
   98100   0.89099181    -3.639418            0   -3.5656142 -0.0041872059 
   98400    0.9437297   -3.6366104            0   -3.5584381 0.0037728367 
   98700    1.0176369    -3.640672            0   -3.5563777 -0.0040104063 
   99000   0.85998027   -3.6405401            0    -3.569305 -0.0055160533 
   99300    0.9345767   -3.6416687            0   -3.5642546 -0.0046185962 
   99600    1.0298756   -3.6390851            0    -3.553777  0.006008633 
   99900    1.1422294   -3.6418923            0   -3.5472776 -0.0024375429 
  100200   0.98651678   -3.6427973            0   -3.5610808 0.0017147334 
  100500    1.0389156   -3.6440477            0   -3.5579909 -0.0055613406 
  100800   0.96992948    -3.644827            0   -3.5644846  0.010364833 
  101100    0.8714012   -3.6439077            0   -3.5717266 0.0045880851 
  101400   0.89225514   -3.6441668            0   -3.5702583 -0.0078807855 
  101700   0.94494172   -3.6485919            0   -3.5703192 0.0035733758 
  102000    1.0111759   -3.6451535            0   -3.5613945  0.006671561 
  102300   0.98821344   -3.6468933            0   -3.5650363 -0.006946491 
  102600   0.97461081    -3.648873            0   -3.5681427 0.0017461511 
  102900    1.0696001   -3.6506695            0   -3.5620709   0.00112309 
  103200   0.93010356   -3.6487782            0   -3.5717347 -0.0051907907 
  103500   0.93209521   -3.6473406            0   -3.5701321 0.00048158856 
  103800   0.86668398   -3.6473244            0    -3.575534 0.0030653124 
  104100   0.90317825   -3.6506718            0   -3.5758586 -0.0093908787 
  104400   0.99438819   -3.6529685            0   -3.5706001 0.0034976102 
  104700     1.000243    -3.650541            0   -3.5676875 -0.0023637446 
  105000     1.032684   -3.6529214            0   -3.5673808 -0.0030459085 
  105300     1.110819   -3.6544808            0   -3.5624679 -0.0054787329 
  105600     1.032754   -3.6514851            0   -3.5659386 -0.010190445 
  105900   0.91005471   -3.6480872            0   -3.5727043 -0.003875264 
  106200    1.0309886   -3.6537299            0   -3.5683296 -0.0025298963 
  106500   0.99970922   -3.6516068            0   -3.5687976 -0.0057691584 
  106800    1.0278549   -3.6543015            0   -3.5691608  0.004066508 
  107100    1.0046265    -3.651988            0   -3.5687714 0.0049564243 
  107400    1.0600873   -3.6519281            0   -3.5641175 -0.00046055128 
  107700    1.1179892    -3.655252            0   -3.5626452 0.0053245959 
  108000    1.1146326   -3.6562816            0   -3.5639529 0.0071653529 
  108300    1.0347315   -3.6606146            0   -3.5749044  0.006042603 
  108600   0.96615639   -3.6597888            0   -3.5797588 0.00022436219 
  108900    1.0051649   -3.6604213            0   -3.5771601 -0.0030681156 
  109200   0.95629312   -3.6604621            0   -3.5812492 -0.0013439512 
  109500    1.0244758   -3.6631083            0   -3.5782475 0.0060827061 
  109800    1.0459238   -3.6622971            0   -3.5756598 -0.0042750808 
  110100    1.1631786   -3.6666913            0   -3.5703414 0.0054254834 
  110400   0.97975552   -3.6637166            0   -3.5825601  0.011333664 
  110700    1.0545944    -3.664348            0   -3.5769925 -0.00091684097 
  111000    1.0478798   -3.6675741            0   -3.5807747 0.0015345517 
  111300    1.1499527   -3.6778128            0   -3.5825584 -0.0059000013 
  111600    1.2408859   -3.6973063            0   -3.5945196 0.00047627509 
  111900    1.0716684   -3.6903569            0    -3.601587 0.0021656923 
  112200    1.0050401   -3.6991661            0   -3.6159153  0.010161534 
  112500   0.99942313   -3.7059726            0   -3.6231871 -0.010925783 
  112800   0.92598064   -3.7008047            0   -3.6241026 0.0020138102 
  113100   0.96757268   -3.7031072            0   -3.6229599 0.0033109677 
  113400    1.0075804   -3.7042743            0    -3.620813 0.0063502604 
  113700    1.0646638   -3.7071064            0   -3.6189167 0.00039111522 
  114000    1.0351141   -3.7068481            0   -3.6211061  0.001435027 
  114300    1.0787772   -3.7050158            0   -3.6156571 -0.010154505 
  114600   0.94484617   -3.7056776            0   -3.6274129 -0.0048151889 
  114900   0.92192045   -3.7042352            0   -3.6278695 0.0063496375 
  115200   0.98884114   -3.7026668            0   -3.6207578 0.0034104836 
  115500    1.0525202    -3.702312            0   -3.6151282 0.0040037644 
  115800   0.99407556   -3.7041504            0   -3.6218078 -0.0045921847 
  116100   0.97115457   -3.7041957            0   -3.6237518 -0.0073156436 
  116400   0.98169924   -3.7070433            0   -3.6257259 0.0058773835 
  116700    1.0013191   -3.7070572            0   -3.6241146 0.00099956706 
  117000    1.0104843   -3.7076295            0   -3.6239277 0.0035586908 
  117300   0.92201958   -3.7058207            0   -3.6294467 -0.0081879553 
  117600   0.91146478   -3.7062085            0   -3.6307088 -0.0012131175 
  117900    1.0993299   -3.7111921            0    -3.620131 -0.0036900583 
  118200    1.0560747   -3.7042206            0   -3.6167424   0.00259834 
  118500    1.1342495   -3.7059928            0   -3.6120391 -0.0048334215 
  118800    1.0811337   -3.7063584            0   -3.6168045 -0.0063929452 
  119100    1.0775925   -3.7031179            0   -3.6138573 -0.0033569459 
  119400     1.016112   -3.7058342            0   -3.6216662 -0.0094259832 
  119700   0.96757255   -3.7080846            0   -3.6279373 0.0031249314 
  120000   0.97307112   -3.7044938            0   -3.6238911 0.0066659213 
  120300   0.98443239    -3.703167            0   -3.6216232 0.0027231617 
  120600    1.0340206   -3.7113607            0   -3.6257093 0.00083213521 
  120900    1.0244378   -3.7124515            0    -3.627594 -0.00093447982 
  121200   0.88239621   -3.7085878            0    -3.635496  0.012480797 
  121500    1.0122218   -3.7109557            0     -3.62711  0.016304745 
  121800    1.0405189   -3.7059916            0    -3.619802 0.0034238226 
  122100   0.99924589    -3.707351            0   -3.6245801 -0.0034453055 
  122400    1.0096668   -3.7063543            0   -3.6227203 -0.0026886564 
  122700    1.0599332   -3.7107067            0   -3.6229089 0.0016930559 
  123000   0.95871371     -3.70862            0   -3.6292066 0.0058718052 
  123300   0.99502266   -3.7128795            0   -3.6304585 0.0023024457 
  123600    1.0188161   -3.7069602            0   -3.6225683 -0.0011559749 
  123900    1.0344557   -3.7079247            0   -3.6222373  0.005420118 
  124200    1.0348116   -3.7108823            0   -3.6251654 0.0052372396 
  124500     1.048561   -3.7128972            0   -3.6260414 -0.005340774 
  124800   0.97437838   -3.7122915            0   -3.6315805 -0.0071181576 
  125100   0.95152142    -3.713576            0   -3.6347583 -0.0047223591 
  125400    1.0594181    -3.716357            0   -3.6286019 0.0048448261 
  125700    0.9776406    -3.716839            0   -3.6358578 0.0024474026 
  126000    1.0048838   -3.7138064            0   -3.6305685 -0.0097725698 
  126300   0.99645279   -3.7162092            0   -3.6336697 -0.0039729368 
  126600   0.95041337   -3.7118231            0   -3.6330972 -0.0066696559 
  126900   0.88425706    -3.715928            0    -3.642682 -0.0023842189 
  127200   0.93115943   -3.7216103            0   -3.6444793 0.0066971893 
  127500    0.9828171   -3.7190161            0   -3.6376061  0.010877976 
  127800    1.0040108   -3.7194254            0   -3.6362598 -0.0036153293 
  128100    1.0803811   -3.7201495            0   -3.6306579 0.0025633504 
  128400    1.0068085    -3.720998            0   -3.6376007 0.0054537127 
  128700    0.9458472   -3.7215301            0   -3.6431824 0.0039929562 
  129000   0.89215161   -3.7213003            0   -3.6474004  0.011349033 
  129300   0.96980093   -3.7185843            0   -3.6382524 0.0045883245 
  129600   0.91993049   -3.7190755            0   -3.6428746 0.0019387673 
  129900   0.94453031   -3.7194366            0    -3.641198 -0.0010564682 
  130200   0.93897548   -3.7200367            0   -3.6422583 0.00089741278 
  130500   0.88820314   -3.7204986            0   -3.6469258 0.0072357419 
  130800     1.029027   -3.7229028            0    -3.637665 -0.0005194675 
  131100   0.97583996   -3.7170363            0   -3.6362042 0.0032212363 
  131400   0.90726399   -3.7193674            0   -3.6442157 0.0048345638 
  131700   0.99860122   -3.7231547            0   -3.6404372 -0.0022458454 
  132000   0.95604994    -3.720184            0   -3.6409912 0.0089658695 
  132300   0.97167868   -3.7220534            0    -3.641566 0.0020890424 
  132600   0.93339398     -3.72356            0   -3.6462439 0.0038822704 
  132900   0.88517013    -3.721101            0   -3.6477794 -0.00080249923 
  133200   0.91741596   -3.7190057            0   -3.6430131 0.0027935089 
  133500    1.0341255   -3.7160795            0   -3.6304194 -0.0008466885 
  133800    1.0845882   -3.7175782            0   -3.6277381 -0.0039068847 
  134100    1.0169936   -3.7176744            0   -3.6334334 -0.00061267454 
  134400    1.0647685   -3.7137711            0   -3.6255728 0.0021864848 
  134700   0.98494266   -3.7118856            0   -3.6302995 -0.0045380119 
  135000    1.0182801   -3.7139116            0    -3.629564 -0.00079162334 
  135300    1.0789529     -3.71931            0   -3.6299367 -0.0013234042 
  135600    1.0133513   -3.7204783            0   -3.6365391 0.0017776067 
  135900   0.96268973    -3.717451            0   -3.6377082 0.0013611782 
  136200     1.002361   -3.7186221            0   -3.6355932 0.00064543195 
  136500   0.97828104   -3.7233117            0   -3.6422774 0.0038487827 
  136800     0.921875   -3.7213208            0   -3.6449589 0.0021323654 
  137100    1.0369947   -3.7258411            0   -3.6399433 -0.006832984 
  137400    1.0020849    -3.724347            0    -3.641341 -0.0031646959 
  137700   0.92746593   -3.7253315            0   -3.6485064 -0.0045865768 
  138000    1.1339659   -3.7295727            0   -3.6356425  0.003139003 
  138300    1.1161084   -3.7306279            0   -3.6381769 0.0017870388 
  138600     1.036544   -3.7226714            0    -3.636811 -0.0034226674 
  138900    1.0658861   -3.7280603            0   -3.6397694 -0.0048915621 
  139200    1.0582536   -3.7296313            0   -3.6419726 0.0012908121 
  139500    1.1268621   -3.7306845            0   -3.6373427 -0.0071436779 
  139800   0.99820633     -3.72966            0   -3.6469753 0.0036470262 
  140100    1.0709893   -3.7280312            0   -3.6393175 0.00039665271 
  140400   0.96740974   -3.7286005            0   -3.6484667 0.0090628591 
  140700    1.0016192   -3.7295696            0   -3.6466022 -0.0026941393 
  141000    0.8501524   -3.7268226            0   -3.6564017 0.00044339564 
  141300   0.93785904   -3.7278525            0   -3.6501665 -0.0053016019 
  141600   0.98897403   -3.7252632            0   -3.6433431 -0.0032039763 
  141900   0.98515146   -3.7267196            0   -3.6451163 0.0042852263 
  142200   0.99049759    -3.725859            0   -3.6438128  -0.00080135 
  142500   0.93979709   -3.7276409            0   -3.6497944 -0.004100046 
  142800   0.98847218   -3.7274722            0   -3.6455938 0.0015668301 
  143100    1.0581501   -3.7320421            0    -3.644392 -0.0015039728 
  143400   0.98956345   -3.7306942            0   -3.6487253  0.003630614 
  143700   0.90667918   -3.7335107            0   -3.6584074 -0.0052486023 
  144000    1.0559179   -3.7403076            0   -3.6528424   0.01192494 
  144300    1.0533808   -3.7357277            0   -3.6484727 -0.00092611776 
  144600    1.0475206   -3.7383122            0   -3.6515426 0.0012361282 
  144900     1.066265   -3.7394157            0   -3.6510934 -0.005650352 
  145200    1.0154358    -3.739152            0   -3.6550401 0.0021393071 
  145500    1.0095335   -3.7440248            0   -3.6604017 0.0063527752 
  145800    1.1263707   -3.7445425            0   -3.6512415 -0.0032143587 
  146100    1.1003678   -3.7451722            0   -3.6540251 0.0015707106 
  146400    1.0738932   -3.7470567            0   -3.6581026 -0.0038472768 
  146700   0.94791197   -3.7539101            0   -3.6753914 -0.002761609 
  147000   0.98637919   -3.7540055            0   -3.6723004 -0.0011002459 
  147300    1.0396307   -3.7519791            0    -3.665863 -0.0052249873 
  147600   0.99683342   -3.7512044            0   -3.6686334 -0.0012431596 
  147900    1.0076196    -3.754129            0   -3.6706646 -0.0032876293 
  148200   0.87866101   -3.7523953            0   -3.6796129 0.00095660373 
  148500    0.9701107   -3.7491689            0   -3.6688114 -0.0025551426 
  148800   0.98784595    -3.750069            0   -3.6682424 0.0037652518 
  149100    1.0950222   -3.7506136            0   -3.6599093 -0.0032219705 
  149400    1.0641708     -3.75109            0   -3.6629412 0.0027726968 
  149700    1.0236259   -3.7533285            0   -3.6685382 -0.0049076125 
  150000    1.0851903   -3.7584573            0   -3.6685674 -0.00049570744 
  150300    1.0069386   -3.7500799            0   -3.6666719 -0.0069181353 
  150600    1.0436116    -3.754372            0   -3.6679262  0.009784054 
  150900   0.97886549   -3.7545491            0   -3.6734664 -0.005927136 
  151200    1.0641086   -3.7538851            0   -3.6657414 -0.0084925776 
  151500    1.0014744   -3.7494007            0   -3.6664452 -0.0046995647 
  151800    1.0408674   -3.7553926            0   -3.6691741 0.00048366861 
  152100    1.0212789   -3.7566761            0   -3.6720802 -0.0054125755 
  152400   0.93108658   -3.7569097            0   -3.6797847 0.0018209107 
  152700   0.96221932   -3.7549443            0   -3.6752404 0.0022203491 
  153000   0.97475012   -3.7534346            0   -3.6726928 -0.00030109725 
  153300   0.94974867   -3.7552706            0   -3.6765998 0.0027075551 
  153600   0.99338076   -3.7588571            0   -3.6765721 0.0057536829 
  153900    1.0148863   -3.7583025            0   -3.6742361 0.0080827591 
  154200   0.96461711   -3.7569181            0   -3.6770157 0.0010608635 
  154500     1.025767   -3.7561024            0   -3.6711347 -0.0078570051 
  154800    1.0844316   -3.7556456            0   -3.6658186 -0.0047801322 
  155100    1.0452637   -3.7566276            0   -3.6700449  0.002815317 
  155400    1.0607055   -3.7616261            0   -3.6737643 -0.0027328186 
  155700   0.94609061   -3.7559623            0   -3.6775945 0.0041521269 
  156000   0.98659145   -3.7600628            0   -3.6783401 -0.00060804507 
  156300   0.97722984    -3.754139            0   -3.6731918 0.00027532037 
  156600    1.0733447   -3.7640298            0   -3.6751211 -0.0016374477 
  156900    1.0114807   -3.7605058            0   -3.6767215 -0.0022092004 
  157200    1.1130445   -3.7647221            0   -3.6725249 -0.00093126104 
  157500    1.0494175   -3.7616314            0   -3.6747047 0.00045774539 
  157800   0.98928279   -3.7657528            0   -3.6838072 0.0030861909 
  158100   0.99893682   -3.7657981            0   -3.6830528 -0.011109816 
  158400   0.93933573     -3.76262            0   -3.6848117 -0.0021967529 
  158700   0.98649768   -3.7626921            0   -3.6809772 -0.00059345517 
  159000   0.91509816   -3.7622993            0   -3.6864987 0.0054688125 
  159300   0.96476421    -3.763098            0   -3.6831833 -0.0031795928 
  159600     1.045904   -3.7684613            0   -3.6818255 -0.00034984611 
  159900   0.98029074   -3.7686749            0   -3.6874742 0.0020724545 
  160200   0.98881554   -3.7708221            0   -3.6889152 -0.0064890943 
  160500    1.0339206   -3.7637391            0    -3.678096 -0.0037345072 
  160800   0.99335054   -3.7653313            0   -3.6830488 -0.0057836224 
  161100   0.99404123   -3.7634671            0   -3.6811274  0.015450409 
  161400    1.0178123   -3.7710927            0   -3.6867839  0.010372637 
  161700   0.88311647   -3.7657023            0   -3.6925509 -0.0028958832 
  162000   0.92167553   -3.7681022            0   -3.6917568 0.0084989139 
  162300    1.0110201   -3.7682585            0   -3.6845123 0.0020650291 
  162600    1.0867746   -3.7716738            0   -3.6816527 0.0018552438 
  162900    1.0149762   -3.7668043            0   -3.6827304 0.00075154249 
  163200   0.94768565   -3.7613267            0   -3.6828268 -0.0016018534 
  163500   0.93767117   -3.7635311            0   -3.6858606  0.012710595 
  163800   0.95146943    -3.763163            0   -3.6843496 -0.0013375751 
  164100    1.0277685   -3.7660539            0   -3.6809204 -0.0026657156 
  164400    1.0911855   -3.7688532            0   -3.6784667 -0.00091301354 
  164700    1.0322164   -3.7665633            0   -3.6810613  0.006586516 
  165000   0.96474479   -3.7674517            0   -3.6875387  0.004081499 
  165300   0.97823945   -3.7703448            0   -3.6893139 0.0078152162 
  165600   0.98455185   -3.7690187            0   -3.6874649 -0.0050962905 
  165900   0.92693412   -3.7684557            0   -3.6916747  0.007772168 
  166200   0.92064983   -3.7725214            0   -3.6962609 -0.0016826236 
  166500   0.91267637   -3.7718551            0    -3.696255 -5.4880081e-06 
  166800   0.98396661   -3.7680334            0   -3.6865282 -0.011932481 
  167100    1.0099878   -3.7662478            0   -3.6825871  0.004096083 
  167400   0.98496083   -3.7661215            0   -3.6845339 0.0017756698 
  167700    1.0380076   -3.7682589            0   -3.6822773 -0.0025892007 
  168000   0.92320414   -3.7637553            0   -3.6872832 -0.0084448614 
  168300    1.0023595   -3.7698272            0   -3.6867985  0.005329877 
  168600   0.92374038   -3.7683599            0   -3.6918434 0.0047954226 
  168900   0.88420487   -3.7746905            0   -3.7014489 -0.0037138086 
  169200   0.93802704   -3.7709842            0   -3.6932843  0.006087749 
  169500   0.99219851   -3.7689329            0   -3.6867457 0.0036022141 
  169800   0.99179485    -3.766152            0   -3.6839984 5.3908014e-05 
  170100    1.0239876   -3.7679099            0   -3.6830896 0.00061241446 
  170400    1.0465194   -3.7706859            0   -3.6839992 0.0084621353 
  170700    1.0531981   -3.7669369            0    -3.679697 -0.0012454706 
  171000   0.96273508   -3.7609447            0   -3.6811981 0.0016905399 
  171300    1.0531994   -3.7663495            0   -3.6791095 -0.0075792275 
  171600     1.010829   -3.7653058            0   -3.6815755  0.013211933 
  171900    1.0671806   -3.7705826            0   -3.6821844 0.0007846834 
  172200    1.0219283   -3.7733568            0   -3.6887071 -0.0061654073 
  172500    1.0366379   -3.7800192            0    -3.694151 -2.2476281e-05 
  172800    1.0039815   -3.7825386            0   -3.6993754 -0.00036787052 
  173100   0.96698447   -3.7874449            0   -3.7073464 -0.0039058425 
  173400   0.94385399   -3.7873254            0   -3.7091428 -0.011889254 
  173700   0.92955996   -3.7838944            0   -3.7068959 0.00080106107 
  174000   0.93399345   -3.7808953            0   -3.7035295 0.0023678024 
  174300    1.0539153   -3.7855565            0   -3.6982572  0.014378631 
  174600     1.108208   -3.7878481            0   -3.6960515 0.0038103557 
  174900    1.1643339   -3.7838995            0   -3.6874539 0.0019853337 
  175200   0.96349193   -3.7828085            0   -3.7029993 -0.0010924693 
  175500   0.93837482   -3.7768408            0   -3.6991121 0.0026407838 
  175800   0.97374818   -3.7812492            0   -3.7005903 0.0045648512 
  176100   0.99561352   -3.7853662            0   -3.7028962 0.0057435907 
  176400   0.94311913   -3.7898025            0   -3.7116808 0.0037651634 
  176700   0.99956181   -3.7913598            0   -3.7085627 0.00055352292 
  177000    1.0174465   -3.7924414            0   -3.7081629 -0.0058919113 
  177300   0.93180734    -3.792999            0   -3.7158143 -0.0032559257 
  177600   0.98907641   -3.7953601            0   -3.7134316 -0.0021931679 
  177900    0.9246123   -3.7960747            0    -3.719486 0.0090205767 
  178200   0.93575021   -3.7955514            0   -3.7180401 0.0056265529 
  178500   0.94772126   -3.7986983            0   -3.7201954 -0.0021200689 
  178800   0.97138077   -3.8014597            0    -3.720997   0.01303252 
  179100   0.99733891    -3.797646            0   -3.7150331 -0.0055200158 
  179400    1.0069726   -3.7989738            0   -3.7155629 -0.0035611496 
  179700    1.1917543   -3.8009628            0   -3.7022459 -0.0098634062 
  180000    1.0888509   -3.7943373            0   -3.7041442 -0.00026941727 
  180300    1.0414781   -3.7956162            0   -3.7093471 -0.0012535636 
  180600    1.0034675   -3.8011515            0   -3.7180309 -0.0090870959 
  180900    1.0525438   -3.8029181            0   -3.7157324 9.9006753e-05 
  181200    1.0225809   -3.8017401            0   -3.7170363 0.0019754297 
  181500    1.0588182   -3.8029712            0   -3.7152657 0.0019555717 
  181800    1.1173078   -3.8030632            0   -3.7105128 -0.0025836214 
  182100    1.0389168    -3.794684            0   -3.7086271 -0.0089032272 
  182400      0.97054   -3.7990423            0   -3.7186492 0.0025323885 
  182700   0.97894915   -3.7985158            0   -3.7174262 2.058687e-05 
  183000    1.0506053   -3.8046617            0   -3.7176366 -0.0085319789 
  183300    1.0700308   -3.8074132            0    -3.718779  -0.00400056 
  183600    1.1796641   -3.8173531            0   -3.7196376 -0.011286414 
  183900    1.1002652   -3.8168434            0   -3.7257048 -0.0030792305 
  184200    1.1064121   -3.8225818            0    -3.730934 -0.0073821595 
  184500     1.116635   -3.8212329            0   -3.7287383 0.0027025612 
  184800    1.0102503   -3.8153637            0   -3.7316813 -0.0062148366 
  185100   0.96887707   -3.8220674            0   -3.7418121 -0.0026465999 
  185400    0.9957294   -3.8279318            0   -3.7454522 -0.0021589955 
  185700   0.92594997   -3.8262166            0   -3.7495171 -0.0034615745 
  186000   0.85711168   -3.8238099            0   -3.7528124 -0.006151709 
  186300   0.92943764   -3.8243595            0   -3.7473711 -0.006833401 
  186600   0.95966637   -3.8310023            0   -3.7515099 -0.0052778604 
  186900   0.92937492   -3.8258366            0   -3.7488534  0.001570931 
  187200    1.0122488   -3.8299681            0   -3.7461202  0.011678088 
  187500    0.9663927   -3.8263305            0   -3.7462809 -0.0059032058 
  187800     1.092193   -3.8292662            0   -3.7387962 -0.0043311205 
  188100    1.0749231   -3.8318647            0   -3.7428253 0.0061349613 
  188400    1.0553723   -3.8261695            0   -3.7387495 0.0014926185 
  188700   0.99992161   -3.8265202            0   -3.7436933 0.00029609068 
  189000   0.94799583   -3.8232573            0   -3.7447316 0.00047366151 
  189300    1.0264503   -3.8315597            0   -3.7465354 -0.0067348403 
  189600     1.024408   -3.8310827            0   -3.7462276 0.0054140607 
  189900   0.96262987   -3.8364612            0   -3.7567234 -0.00022728294 
  190200   0.98542341   -3.8331091            0   -3.7514832 -0.0014491835 
  190500   0.89650093   -3.8355118            0   -3.7612517 -0.0087833822 
  190800   0.98650374   -3.8303852            0   -3.7486699 0.0003933971 
  191100    1.0813569    -3.841351            0   -3.7517786 -0.0020831815 
  191400    1.1101964     -3.83499            0   -3.7430287 0.0007736085 
  191700    1.0254728   -3.8318225            0   -3.7468792 -0.0017053085 
  192000    1.1425708   -3.8371176            0   -3.7424747 -0.0075845761 
  192300    1.0362314   -3.8353099            0   -3.7494754  0.012752138 
  192600    1.1568852   -3.8388289            0   -3.7430002 0.0014027487 
  192900    1.0465602   -3.8381338            0   -3.7514438 0.0030381606 
  193200   0.98178896   -3.8434341            0   -3.7621093 -0.0070881658 
  193500   0.93032999   -3.8434808            0   -3.7664185 -0.0018315358 
  193800       1.0216   -3.8430944            0   -3.7584718 -0.00078081565 
  194100   0.98704584   -3.8361085            0   -3.7543482 -0.0020156175 
  194400    1.0739088   -3.8405709            0   -3.7516154 -0.0014795431 
  194700   0.99546123    -3.837537            0   -3.7550797 -0.00024721983 
  195000    0.9527313   -3.8416178            0   -3.7626999 0.00075710984 
  195300   0.91514833   -3.8410734            0   -3.7652686 0.0022333025 
  195600   0.94959608   -3.8422265            0   -3.7635683 -0.0065712589 
  195900    1.0863305   -3.8453773            0   -3.7553929 -0.0084822864 
  196200    1.1676037   -3.8492237            0   -3.7525072 0.00032312865 
  196500    1.1521097   -3.8497535            0   -3.7543204 -0.0010005581 
  196800    1.1305864   -3.8611265            0   -3.7674763 0.0069680348 
  197100    1.3173149   -3.8768314            0   -3.7677138 0.0013791577 
  197400    1.2103758   -3.8689291            0   -3.7686696 -0.011617956 
  197700    1.0659462   -3.8701874            0   -3.7818915 0.0025325644 
  198000    1.0171721   -3.8741956            0   -3.7899398 0.0014565646 
  198300    1.0941201   -3.8743539            0   -3.7837243 -0.00053154992 
  198600    1.0027876   -3.8751057            0   -3.7920415  0.011861341 
  198900     1.052517   -3.8766943            0   -3.7895108  0.010713091 
  199200    1.0160176    -3.870847            0   -3.7866869 -0.00067209233 
  199500    1.1215334   -3.8769704            0   -3.7840701  0.002227469 
  199800    1.1039389   -3.8786087            0   -3.7871657 0.0049739611 
  200100    1.0206257   -3.8744356            0   -3.7898937 0.0019271896 
  200400    1.0770469   -3.8742393            0   -3.7850239 -0.00032770679 
  200700    1.0150696   -3.8758528            0   -3.7917712  0.003887192 
  201000    1.0625271   -3.8783754            0   -3.7903628 0.0060970275 
  201300    1.0862462   -3.8844153            0   -3.7944379 0.0019257854 
  201600    1.0077789   -3.8803001            0   -3.7968224 -0.0018958642 
  201900    1.0771227   -3.8821589            0   -3.7929372 0.0044673172 
  202200    1.0775218   -3.8808463            0   -3.7915915 -0.00033529245 
  202500    1.0963288   -3.8818147            0   -3.7910021 -0.0035063388 
  202800   0.96107338    -3.880767            0   -3.8011581 0.0026549754 
  203100   0.99964391   -3.8840399            0   -3.8012361 -0.0028429948 
  203400      1.08406    -3.883005            0   -3.7932087 -0.0087184925 
  203700   0.98470297     -3.87829            0   -3.7967238 0.0030850502 
  204000    1.0710996   -3.8766143            0   -3.7878915 -0.0031621056 
  204300    1.0736762   -3.8772605            0   -3.7883243 0.0013750005 
  204600   0.95672131   -3.8727201            0   -3.7934717 0.00070058027 
  204900    1.1041557    -3.879108            0   -3.7876471 0.0010688317 
  205200    1.0540592   -3.8792448            0   -3.7919336 -0.0033695539 
  205500    1.0250034   -3.8847174            0   -3.7998129 -0.0030370075 
  205800   0.99076738   -3.8844553            0   -3.8023867 -0.0010168862 
  206100   0.99013531   -3.8814905            0   -3.7994743 -0.00035725435 
  206400    1.0574572   -3.8797158            0   -3.7921231 0.0023117262 
  206700    1.0209392   -3.8803274            0   -3.7957596 0.0051489118 
  207000    1.1334134   -3.8826954            0    -3.788811 -0.0033894742 
  207300    1.0768711   -3.8817668            0    -3.792566 0.0061977122 
  207600     1.007413   -3.8777541            0   -3.7943067 -0.0035991478 
  207900    0.9552041   -3.8827533            0   -3.8036306 -0.0042877562 
  208200   0.92074997   -3.8848825            0   -3.8086137 0.0022224569 
  208500   0.88020296   -3.8836278            0   -3.8107176 0.0019694412 
  208800   0.90647001   -3.8855731            0   -3.8104871 -0.017291109 
  209100    0.8895852   -3.8824383            0    -3.808751 -0.0041900868 
  209400   0.89252674   -3.8838186            0   -3.8098876 0.00073845311 
  209700   0.93228703   -3.8811945            0   -3.8039701  -0.00363805 
  210000   0.93726078   -3.8815524            0    -3.803916 -0.0060209467 
  210300    1.0342274   -3.8826288            0   -3.7969603  0.005574878 
  210600    0.9882063   -3.8829034            0    -3.801047 0.0022421855 
  210900    1.0239593   -3.8806964            0   -3.7958784 -0.0035664794 
  211200    1.0170174    -3.879421            0   -3.7951781 0.0057600031 
  211500   0.94041362   -3.8820353            0   -3.8041377 0.0041639768 
  211800   0.89236978   -3.8802686            0   -3.8063506 -0.0068645361 
  212100   0.94408422   -3.8815758            0   -3.8033742 0.0013890996 
  212400   0.89441193   -3.8783577            0   -3.8042706 0.0020224804 
  212700    1.0391566   -3.8804118            0    -3.794335 -0.0051488593 
  213000   0.99689841   -3.8799365            0   -3.7973601 -0.0074097072 
  213300   0.97142613   -3.8811915            0    -3.800725  0.020479473 
  213600    0.9503622   -3.8827737            0    -3.804052 0.0039918163 
  213900    1.0114362   -3.8860142            0   -3.8022336 -0.00067757902 
  214200    0.9970875   -3.8842988            0   -3.8017068 -0.00036809861 
  214500    1.0342538   -3.8847575            0   -3.7990868  -0.01057732 
  214800    1.1006422   -3.8864328            0   -3.7952629 0.0054730735 
  215100    1.0413969   -3.8796094            0    -3.793347 0.0011939329 
  215400    1.0504616   -3.8850573            0    -3.798044 -0.0050595782 
  215700   0.93327395   -3.8822072            0    -3.804901 -0.0001308104 
  216000   0.93879471   -3.8848114            0   -3.8070479 -0.0058772925 
  216300    1.0673216   -3.8869375            0   -3.7985277 0.00063919234 
  216600    1.0530265   -3.8846427            0    -3.797417 -0.0038737549 
  216900   0.97710822   -3.8795639            0   -3.7986268 0.0075854869 
  217200   0.94751622   -3.8842985            0   -3.8058126 0.0066927799 
  217500    1.0560822   -3.8884345            0   -3.8009557 -0.0018151114 
  217800    1.0589369   -3.8866343            0    -3.798919 -0.011280051 
  218100    0.9924887   -3.8896579            0   -3.8074468 0.0056352478 
  218400    1.0645942   -3.8915392            0   -3.8033553 -0.0014065898 
  218700    1.0677089   -3.8920297            0   -3.8035878 -0.0029858671 
  219000    1.0631868   -3.8902854            0   -3.8022181 -0.0036545774 
  219300      1.05934   -3.8910207            0   -3.8032721 0.0033040744 
  219600    1.0209476   -3.8894037            0   -3.8048352 0.0058517363 
  219900    1.0366968   -3.8894531            0     -3.80358 -0.0052223223 
  220200     1.106116   -3.8949382            0   -3.8033149 0.0051186171 
  220500    1.0070757   -3.8913986            0   -3.8079791 -0.001340836 
  220800    1.0808623   -3.8998152            0   -3.8102838  0.011700337 
  221100    1.0409344    -3.893989            0   -3.8077649 0.0022166066 
  221400   0.94334188   -3.8947386            0   -3.8165984 -0.00026129766 
  221700    0.9766533   -3.8964864            0    -3.815587 -0.0007386768 
  222000    1.0602844   -3.9004737            0   -3.8126468 0.0021799973 
  222300   0.97510497   -3.8937777            0   -3.8130065  0.003991811 
  222600    1.0746966   -3.8950212            0   -3.8060005 0.0025277446 
  222900    1.0383371   -3.8968858            0   -3.8108769 -0.013484791 
  223200    1.0810013   -3.8988441            0   -3.8093012  0.005145772 
  223500   0.98136369   -3.8941302            0   -3.8128406 0.0054205266 
  223800    1.0591477   -3.8971257            0    -3.809393 0.0063912578 
  224100    1.0754489   -3.8946273            0   -3.8055443 -0.0038064532 
  224400   0.95510113   -3.8870336            0   -3.8079194 -0.0064179691 
  224700    1.0231269    -3.890085            0    -3.805336 -0.0017705345 
  225000    1.0033562   -3.8982137            0   -3.8151024 -0.0041418457 
  225300    1.0370923   -3.8954521            0   -3.8095463 0.0015436947 
  225600   0.92766845   -3.8898482            0   -3.8130063 -0.0012271869 
  225900   0.95482654   -3.8909505            0   -3.8118591 0.0053671075 
  226200   0.97760872   -3.8933224            0   -3.8123438 0.0033631723 
  226500   0.99621703   -3.8958963            0   -3.8133764 -0.011286944 
  226800    1.0590323   -3.8914534            0   -3.8037303 -0.0018412585 
  227100   0.93886148   -3.8928175            0   -3.8150484 -0.0013419553 
  227400    1.0575761   -3.8901059            0   -3.8025033 0.0083687076 
  227700   0.96603729   -3.8870962            0   -3.8070761 -0.0063312585 
  228000   0.97729915   -3.8908276            0   -3.8098747 0.0040042043 
  228300    1.0103185   -3.8919814            0   -3.8082933  0.010504574 
  228600    1.0681869    -3.886602            0   -3.7981205 -0.0023144128 
  228900   0.98005964    -3.886926            0   -3.8057444 0.0067658233 
  229200    1.0003026    -3.889574            0   -3.8067156 -0.0085039288 
  229500    1.0315112   -3.8858455            0    -3.800402 -0.0024177465 
  229800   0.98776371   -3.8906925            0   -3.8088727   0.01250361 
  230100     1.111697   -3.8933556            0     -3.80127 -0.0038558057 
  230400    1.0453548   -3.8825485            0   -3.7959582 -0.010466639 
  230700     1.018512   -3.8902465            0   -3.8058797 -0.0018422817 
  231000    1.0084502   -3.8947477            0   -3.8112144 0.00070550077 
  231300    0.9561392   -3.8894292            0    -3.810229 -0.0023181193 
  231600    1.0039069    -3.892491            0    -3.809334 -0.010776073 
  231900    1.0197827   -3.8890455            0   -3.8045735 -0.012697032 
  232200    1.0678028   -3.8917347            0    -3.803285 0.0024010819 
  232500   0.99742342   -3.8885681            0   -3.8059482 -0.0093446114 
  232800   0.94308499   -3.8891887            0   -3.8110699 0.0023506361 
  233100   0.95451658   -3.8885213            0   -3.8094555 0.0099452146 
  233400   0.90886036   -3.8923808            0   -3.8170968 0.0016570804 
  233700   0.93181677   -3.8961571            0   -3.8189716 -0.0015384743 
  234000   0.91592286   -3.8966278            0   -3.8207588 0.0041258108 
  234300   0.88873283   -3.8923576            0   -3.8187409 0.0003828448 
  234600   0.96162989   -3.8987031            0   -3.8190481 0.0067796455 
  234900    1.0381445   -3.8980988            0   -3.8121058 -0.00089967493 
  235200   0.94449293   -3.8902195            0    -3.811984 -0.0004392326 
  235500   0.89742865   -3.8911037            0   -3.8167667 -0.007109856 
  235800   0.94954198   -3.8941091            0   -3.8154553 -0.0046971839 
  236100    1.0256566   -3.8903279            0   -3.8053693 -0.0063215329 
  236400   0.98757591   -3.8891443            0   -3.8073401 -0.0029768592 
  236700   0.95443756   -3.8958938            0   -3.8168346 -0.0027563889 
  237000   0.94584992   -3.8956541            0   -3.8173062 0.0027951805 
  237300   0.97815962   -3.8967866            0   -3.8157624 -0.0036958063 
  237600    1.0165009   -3.8967571            0    -3.812557 -0.0022437041 
  237900    1.0027527   -3.8994803            0   -3.8164189 0.0045652774 
  238200    1.1211525   -3.9009283            0   -3.8080595 0.0010705307 
  238500    1.0531833   -3.8973712            0   -3.8101325 0.00010384297 
  238800     1.070709    -3.901805            0   -3.8131146 -0.0011238742 
  239100     1.065764    -3.904024            0   -3.8157432 -0.0046116605 
  239400    1.0193445   -3.9028292            0   -3.8183935 0.0034025697 
  239700   0.94380347   -3.9036587            0   -3.8254803 0.0099213338 
  240000   0.98171019   -3.9099457            0   -3.8286274 0.0003734953 
  240300    1.0712321   -3.9050514            0   -3.8163177 -0.00017679819 
  240600    1.0955824   -3.9084352            0   -3.8176845 -0.0019337112 
  240900    1.1144312   -3.9049863            0   -3.8126742 0.0044719363 
  241200     1.071488   -3.9043084            0   -3.8155535 0.00084138473 
  241500   0.98386266   -3.9001565            0   -3.8186598 -0.0022931162 
  241800   0.92079644   -3.9040378            0   -3.8277652 -0.004319433 
  242100    1.0850673   -3.9066733            0   -3.8167935 -0.011576381 
  242400   0.96578991   -3.9055413            0   -3.8255417 -0.0052889974 
  242700   0.88825489   -3.9040065            0   -3.8304294 -0.0055101895 
  243000    1.0393362   -3.9092053            0   -3.8231136 -0.00015939499 
  243300     1.024124   -3.9061132            0   -3.8212815 -0.0048363095 
  243600   0.91789158    -3.909141            0    -3.833109 -0.006016608 
  243900   0.88936886   -3.9059602            0   -3.8322908 -0.0097291954 
  244200    0.9096334   -3.9080123            0   -3.8326643 -0.0055273458 
  244500    1.0762617   -3.9082716            0   -3.8191212 -0.0022531582 
  244800    1.0330076   -3.9035578            0   -3.8179903 0.0042068662 
  245100   0.99218334     -3.90533            0   -3.8231441  0.010320125 
  245400    1.0186351   -3.9043861            0   -3.8200092 0.0072216127 
  245700    1.0016465   -3.9035216            0   -3.8205519 0.00036177248 
  246000   0.97544185   -3.9060525            0   -3.8252534 0.0004810445 
  246300   0.90905435   -3.9045001            0   -3.8292001  0.009039137 
  246600   0.93396605   -3.9067455            0   -3.8293819 9.3337148e-05 
  246900   0.91355108   -3.9078434            0   -3.8321709 -0.0060499725 
  247200    1.0503416   -3.9136848            0   -3.8266815 0.0047522329 
  247500   0.97664696    -3.909613            0   -3.8287141 0.0051768509 
  247800    1.0782967   -3.9135004            0   -3.8241815 0.0044992464 
  248100    1.1076371   -3.9153847            0   -3.8236354 -0.0021867449 
  248400    1.0445266   -3.9131968            0   -3.8266752 -0.0073953061 
  248700   0.96467004    -3.914687            0   -3.8347802 0.0023967068 
  249000    1.0254098   -3.9170641            0    -3.832126 0.0046344613 
  249300   0.99203544   -3.9172946            0    -3.835121 -0.0072939791 
  249600   0.95093179   -3.9168388            0   -3.8380699 -0.0057044549 
  249900    1.0457777   -3.9154318            0   -3.8288066 0.0046174662 
  250200    1.0265174   -3.9192774            0   -3.8342475 -0.0018615487 
  250500   0.88770126   -3.9155813            0   -3.8420501 0.0018133016 
  250800   0.98607525   -3.9179141            0   -3.8362342 0.0016992195 
  251100   0.99622432   -3.9180195            0   -3.8354989 -0.014024985 
  251400    1.0574788   -3.9188118            0   -3.8312173  0.010688575 
  251700   0.99576734   -3.9168087            0    -3.834326 0.0057131469 
  252000     1.039406   -3.9181855            0   -3.8320881 -0.0024118426 
  252300   0.91629272   -3.9144464            0   -3.8385468 0.0020972431 
  252600    1.1067525   -3.9203636            0   -3.8286876 0.0033060301 
  252900    1.0924851   -3.9239922            0    -3.833498 0.0043087332 
  253200    1.1092039   -3.9221378            0   -3.8302588 -0.0061202003 
  253500    1.0831239   -3.9288306            0   -3.8391119 0.0013523583 
  253800   0.97820372   -3.9333267            0   -3.8522988 0.00087927063 
  254100    1.0176267   -3.9288858            0   -3.8445924 0.0064579952 
  254400    1.0114329   -3.9254535            0   -3.8416731 -0.011451776 
  254700    1.0091453   -3.9307395            0   -3.8471486 -0.0024850239 
  255000    1.0693651    -3.928051            0   -3.8394719 0.0056110598 
  255300   0.99949129    -3.928813            0   -3.8460218 -8.2470987e-05 
  255600   0.95062841   -3.9327081            0   -3.8539644 -0.0087659604 
  255900     0.969702   -3.9308401            0   -3.8505165 -0.00054765079 
  256200   0.98956584    -3.929312            0   -3.8473429 -0.009002061 
  256500   0.99922912   -3.9304569            0   -3.8476874  0.011250882 
  256800    1.1018434   -3.9309754            0   -3.8397061 -0.00079984146 
  257100    1.0465246   -3.9355718            0   -3.8488846 0.0042187163 
  257400    1.0610938   -3.9317238            0   -3.8438298 -0.013738444 
  257700    1.1483545   -3.9377465            0   -3.8426244 -0.0081768491 
  258000    1.0905637   -3.9402471            0   -3.8499121 0.0010412057 
  258300    1.1552785   -3.9501526            0    -3.854457 -0.012316581 
  258600    1.2175982   -3.9634558            0    -3.862598  0.014004275 
  258900      1.24336   -3.9714331            0   -3.8684415 0.0062308162 
  259200      1.11578   -3.9690538            0     -3.87663 0.0037962623 
  259500    1.1501397   -3.9715841            0   -3.8763142 -0.0028931066 
  259800    1.1392817    -3.978528            0   -3.8841575 -0.0038061603 
  260100    1.0824434   -3.9805777            0   -3.8909153 -0.012543454 
  260400    1.0554166   -3.9787971            0   -3.8913734 -0.0048336174 
  260700    1.0823947   -3.9825634            0   -3.8929051 0.0081689314 
  261000    1.1075932   -3.9814263            0   -3.8896807 -0.0086122999 
  261300   0.94977924    -3.978485            0   -3.8998117 -0.0056429917 
  261600   0.98395259   -3.9834477            0   -3.9019436 0.00053077688 
  261900    1.0407621   -3.9840081            0   -3.8977983 0.0047094453 
  262200    1.1099958   -3.9935612            0   -3.9016166 0.0082756788 
  262500    1.0173805    -3.985644            0    -3.901371  0.004183239 
  262800    1.1105086   -3.9881154            0   -3.8961283 0.0028579377 
  263100    1.0088154   -3.9881593            0   -3.9045958 0.0034740117 
  263400   0.98544847   -3.9889644            0   -3.9073364 0.0034327115 
  263700   0.98384709   -3.9845336            0   -3.9030383 -0.004359322 
  264000    1.0009152   -3.9937002            0   -3.9107911 -0.001789788 
  264300    0.9106214   -3.9923769            0   -3.9169471 -0.00012557566 
  264600    0.9939084   -4.0026583            0   -3.9203295 0.00077860694 
  264900    1.0312094   -3.9962752            0   -3.9108567 0.0044808204 
  265200    1.0232991   -3.9981329            0   -3.9133696 -0.0054367681 
  265500   0.96768608   -4.0025841            0   -3.9224275 0.0013816775 
  265800    1.0618155   -4.0011796            0   -3.9132258 0.0034879019 
  266100    1.0795975   -3.9974489            0   -3.9080223 0.0017129396 
  266400     1.039955   -4.0042523            0   -3.9181094  -0.00224444 
  266700    1.1118371   -4.0059046            0   -3.9138074 -0.00028430849 
  267000   0.97159687   -4.0008953            0   -3.9204147 0.0021345226 
  267300   0.98383761   -4.0017831            0   -3.9202885 0.0084127542 
  267600   0.99046916   -4.0014422            0   -3.9193983 0.0030239803 
  267900    1.0328601   -4.0043444            0   -3.9187891 0.0075039422 
  268200    1.0005493   -4.0063226            0   -3.9234437   0.00146397 
  268500     1.013235   -4.0086869            0   -3.9247573 0.0011622818 
  268800    1.0549283   -4.0071217            0   -3.9197385 -0.0062924797 
  269100    1.0302166   -4.0087332            0    -3.923397 -0.0028509002 
  269400     1.052311   -4.0152851            0   -3.9281187 0.0074484326 
  269700   0.96431195   -4.0134968            0   -3.9336197 0.0048043273 
  270000   0.95676211   -4.0093731            0   -3.9301213 -0.0039197161 
  270300   0.98679151   -4.0105018            0   -3.9287626 -0.0034914112 
  270600    1.0048534    -4.011747            0   -3.9285117 0.00084827856 
  270900   0.96423842   -4.0145117            0   -3.9346406 0.0035007654 
  271200    1.0209851   -4.0174501            0   -3.9328785 -0.00081218817 
  271500    1.0713155   -4.0177125            0   -3.9289718 -0.0005011873 
  271800   0.97860327   -4.0154565            0   -3.9343956  0.005678852 
  272100    1.0402108   -4.0170636            0   -3.9308994 0.0025245793 
  272400   0.97737368   -4.0230679            0   -3.9421088 0.0014715829 
  272700   0.99811385   -4.0213154            0   -3.9386383 0.0071098438 
  273000    1.0681514   -4.0233042            0   -3.9348256 0.0052054316 
  273300    1.0027819   -4.0211756            0   -3.9381118 -0.0027563072 
  273600    1.0553327   -4.0293239            0   -3.9419072 0.0026646102 
  273900    1.1456586    -4.040358            0   -3.9454592 -0.013236537 
  274200    1.2417859   -4.0606089            0   -3.9577477 0.00026377294 
  274500    1.0574908    -4.050217            0   -3.9626215 -0.003632964 
  274800   0.95126208   -4.0546443            0   -3.9758481 0.0058262797 
  275100   0.95186549   -4.0509178            0   -3.9720716 -0.0091134712 
  275400    1.0236369   -4.0544627            0   -3.9696715  0.013578569 
  275700   0.93155003   -4.0512094            0    -3.974046 -0.0053626682 
  276000    1.0232029   -4.0619461            0   -3.9771908 -0.00069523611 
  276300    1.0155513   -4.0569036            0   -3.9727821 -0.001393953 
  276600   0.92841628   -4.0544988            0    -3.977595 0.0029550266 
  276900   0.94259643   -4.0504772            0   -3.9723988 0.0067702554 
  277200    1.0653842   -4.0625003            0    -3.974251 0.0036948169 
  277500    0.9492369   -4.0548593            0   -3.9762309 -0.0056160029 
  277800    1.0348699   -4.0576239            0   -3.9719022  0.007481527 
  278100    1.0681705   -4.0553298            0   -3.9668497  0.001385952 
  278400   0.96455162   -4.0505374            0   -3.9706404 -0.0063136136 
  278700    1.0565064   -4.0593116            0   -3.9717977 2.1618322e-05 
  279000    1.0334865   -4.0599196            0   -3.9743125 -0.0024790384 
  279300   0.99563061   -4.0601463            0   -3.9776749 -0.012019541 
  279600   0.91944835    -4.054031            0   -3.9778701 -0.0058755094 
  279900    0.9036859   -4.0527105            0   -3.9778552 0.0024170515 
  280200    1.0492293    -4.063182            0   -3.9762709 -0.0063427237 
  280500    1.0084734   -4.0604634            0   -3.9769282 -0.0019570274 
  280800    1.1050657   -4.0562076            0   -3.9646714 -0.0071058355 
  281100    1.1095072    -4.057675            0   -3.9657708 -0.0023661308 
  281400    1.1730713   -4.0638661            0   -3.9666967 -0.0059475775 
  281700    1.0419986   -4.0618556            0   -3.9755434 -0.0004718607 
  282000    1.0672845     -4.07289            0   -3.9844832 0.0027514038 
  282300     1.059045   -4.0825204            0   -3.9947961 -0.00047040149 
  282600     1.051889   -4.0869704            0   -3.9998389 -0.00097725352 
  282900    1.0482486   -4.0838834            0   -3.9970534 -0.007465863 
  283200    1.0709137    -4.090012            0   -4.0013047 0.0025144987 
  283500    1.0243171    -4.088439            0   -4.0035914 0.0031990039 
  283800    1.0798052   -4.0900259            0    -4.000582 0.0056787317 
  284100    1.0031312   -4.0942408            0   -4.0111481 0.0022932238 
  284400   0.93067386    -4.091064            0   -4.0139731 0.00048331987 
  284700    1.0016429   -4.0898898            0   -4.0069203 -0.0022693703 
  285000   0.97949621   -4.0834851            0   -4.0023502 0.00039323317 
  285300    1.0564985    -4.089786            0   -4.0022727 0.0096960516 
  285600   0.97073082   -4.0830295            0   -4.0026207 -0.0042568111 
  285900    1.0510588   -4.0877878            0    -4.000725 -0.0097731628 
  286200   0.92201389   -4.0831765            0    -4.006803 -0.0098708535 
  286500    1.0226518    -4.089687            0   -4.0049774 0.0043026363 
  286800   0.99785126   -4.0903102            0   -4.0076549 -0.0057715986 
  287100   0.97974971   -4.0867398            0   -4.0055839 0.0010135012 
  287400    1.0246665   -4.0936238            0   -4.0087472 0.0028499384 
  287700   0.98393237   -4.0868885            0   -4.0053861 -0.005706037 
  288000   0.99903749    -4.087454            0   -4.0047003 -0.0065515851 
  288300    1.0222065   -4.0883789            0   -4.0037061 -0.005753607 
  288600    1.0762077   -4.0913768            0    -4.002231 -0.00058677004 
  288900    1.0389267   -4.0870742            0   -4.0010165 0.0017711381 
  289200    1.0483855   -4.0875782            0   -4.0007369 -0.0034962649 
  289500    1.0927415   -4.0912305            0   -4.0007151 -0.0040493588 
  289800    1.1049302   -4.0900749            0   -3.9985498 0.0034430407 
  290100    1.0500668   -4.0936519            0   -4.0066714 -0.0037063794 
  290400    1.1151479   -4.0947809            0   -4.0024095 -0.0016506606 
  290700    1.0500808   -4.0818132            0   -3.9948315 -0.0034513118 
  291000    1.1355055   -4.0862129            0   -3.9921552 -0.0016108016 
  291300    1.1464984   -4.0909201            0   -3.9959518 -0.0011453081 
  291600    1.0340099    -4.089119            0   -4.0034686 -0.0039851734 
  291900   0.99454566     -4.08653            0   -4.0041485 -0.001553571 
  292200   0.99831001   -4.0853444            0    -4.002651  0.009296672 
  292500    1.0436862   -4.0818771            0   -3.9954251  0.005778448 
  292800    1.1192475   -4.0827126            0   -3.9900016 0.0016615361 
  293100    1.1105005   -4.0870558            0   -3.9950693 -0.0020710028 
  293400    1.1364212   -4.0900838            0   -3.9959502 0.0042300399 
  293700    1.0840653   -4.0853395            0   -3.9955428 0.0064316724 
  294000    1.0811054   -4.0885542            0   -3.9990026 -0.0019111412 
  294300    1.0838045   -4.0903843            0   -4.0006092 0.0061278001 
  294600    1.0903654   -4.0832428            0   -3.9929242  0.006812833 
  294900    1.0544435   -4.0886938            0   -4.0013507 0.0051709277 
  295200   0.95147573   -4.0825731            0   -4.0037592 0.0051082181 
  295500    1.0439085   -4.0890574            0    -4.002587 -3.2058106e-05 
  295800    1.0244349   -4.0884305            0   -4.0035731 -0.0028249716 
  296100    1.0203789   -4.0848978            0   -4.0003764 0.0039816017 
  296400    1.1509133   -4.0845053            0   -3.9891714 -0.00082950512 
  296700    1.1452501   -4.0905862            0   -3.9957213 0.0024350655 
  297000    1.0798461   -4.0929727            0   -4.0035255 -0.0083185898 
  297300   0.99686233   -4.0903678            0   -4.0077943 -0.00082158904 
  297600   0.99551351   -4.0954501            0   -4.0129884 -0.0094758466 
  297900   0.97630587   -4.0935494            0   -4.0126787 0.00022245846 
  298200   0.92349859   -4.0919258            0   -4.0154294 -0.0017624474 
  298500   0.99675621    -4.091176            0   -4.0086113 0.0064261549 
  298800   0.99515892   -4.0893176            0   -4.0068853 0.0038237035 
  299100   0.94303966   -4.0975241            0    -4.019409 -0.00094470645 
  299400   0.96718948   -4.0927448            0   -4.0126293 -0.003037556 
  299700   0.98135133   -4.0880184            0   -4.0067298 -0.0092333322 
  300000    1.0678724   -4.0962001            0   -4.0077447 -0.0076986593 
  300300   0.97757341   -4.0930651            0   -4.0120894 -0.00081423396 
  300600   0.88211239   -4.0929773            0    -4.019909 0.0078775834 
  300900   0.93290305   -4.0898203            0   -4.0125449 0.0033936704 
  301200   0.96470135   -4.0929646            0   -4.0130552 -0.00099117299 
  301500   0.95578314   -4.0927103            0   -4.0135396 -0.0060697704 
  301800   0.94028655   -4.0903186            0   -4.0124315 -0.001513555 
  302100    1.0494773   -4.0924286            0   -4.0054969 0.0026010554 
  302400    1.0515964   -4.0997073            0   -4.0126001 -0.0013280593 
  302700    1.0961239   -4.0962662            0   -4.0054706 0.0016250433 
  303000   0.96420191   -4.0940059            0   -4.0141378 -0.0058953911 
  303300   0.91183044   -4.0973873            0   -4.0218573 -0.00089385211 
  303600     1.028485    -4.099729            0   -4.0145362 -0.0052444401 
  303900   0.98982339   -4.0972848            0   -4.0152944 0.0055348827 
  304200   0.97615135   -4.0955728            0    -4.014715 0.0031401316 
  304500    1.0106511   -4.0991776            0    -4.015462 -0.0023525944 
  304800   0.99134374   -4.0984716            0   -4.0163553 -0.0017949178 
  305100   0.98775192   -4.0952756            0   -4.0134568 -0.0027056737 
  305400    1.0207881   -4.0971369            0   -4.0125816 0.0075816552 
  305700    1.0174618   -4.0969056            0   -4.0126259 0.0037227055 
  306000    1.0343731   -4.0966009            0   -4.0109203 0.0053556047 
  306300    1.0162836    -4.092908            0   -4.0087258 -0.0018386311 
  306600    1.0776789   -4.0958927            0    -4.006625 0.0078159882 
  306900    1.0901489   -4.0963563            0   -4.0060556 -0.0043036849 
  307200    1.0694288   -4.0911185            0   -4.0025341 -0.0012181153 
  307500    1.0084696   -4.0956255            0   -4.0120906  0.014509628 
  307800    1.0319733   -4.0990107            0   -4.0135289  0.013875219 
  308100   0.95283822   -4.0995575            0   -4.0206308 -0.001030087 
  308400   0.93385642   -4.0969346            0   -4.0195802 0.00026292625 
  308700   0.89275512   -4.1012101            0   -4.0272602 0.0061966966 
  309000    1.0371303   -4.0965413            0   -4.0106323 0.0068136884 
  309300   0.97810637    -4.097988            0   -4.0169682 -0.0024007976 
  309600    1.0255314   -4.0917877            0   -4.0068395 0.0023531803 
[...]
  425700   0.96407488   -4.2170812            0   -4.1372236 0.0026334818 
  426000    0.9731788   -4.2162876            0    -4.135676 -0.0041140472 
  426300   0.84089107   -4.2104568            0    -4.140803 0.0020109749 
  426600    1.0121274   -4.2169599            0    -4.133122 -0.010799131 
  426900   0.97846428   -4.2145748            0   -4.1335253 -0.0014053828 
  427200    1.0119741   -4.2174825            0   -4.1336573 -0.001500283 
  427500    1.0281484   -4.2113469            0    -4.126182  0.004985926 
  427800     1.035356   -4.2140824            0   -4.1283205 0.00088787886 
  428100    1.0252736   -4.2098716            0   -4.1249447  0.012531321 
  428400    1.0172249   -4.2115272            0    -4.127267 0.0027845975 
  428700    1.2028893   -4.2201534            0   -4.1205141 0.00054103811 
  429000    1.0124675   -4.2170091            0   -4.1331431 -0.0066623361 
  429300    1.0225752   -4.2151885            0   -4.1304852 -0.011598734 
  429600    0.8848879   -4.2129006            0   -4.1396023 0.00094771995 
  429900    1.0909224   -4.2210524            0   -4.1306877 -0.0037211075 
  430200   0.95014983   -4.2114822            0   -4.1327781 -0.002556638 
  430500   0.89378989   -4.2136597            0   -4.1396241 -0.0029474613 
  430800   0.95177183   -4.2177024            0    -4.138864 -0.0085734149 
  431100   0.94375407   -4.2115406            0   -4.1333663 -0.0021378706 
  431400    1.0612092   -4.2165266            0   -4.1286231 0.0017852373 
  431700    1.0358595   -4.2147209            0   -4.1289173 -0.0033058624 
  432000     1.113234    -4.218002            0   -4.1257891 0.0034276148 
  432300    1.1174055   -4.2204412            0   -4.1278827 -0.00050323278 
  432600    1.0101547   -4.2106052            0   -4.1269307 -0.0095909756 
  432900    1.0614453   -4.2155584            0   -4.1276353 -0.0058320972 
  433200    1.0935658   -4.2159426            0   -4.1253589 0.0038042009 
  433500   0.98555228   -4.2132038            0   -4.1315672 0.0038179529 
  433800    1.0504337   -4.2133643            0   -4.1263534 0.00021836875 
  434100    1.0854727   -4.2167196            0   -4.1268063 -0.0041003464 
  434400      1.14033     -4.21839            0   -4.1239327 0.0013213996 
  434700    1.0840251   -4.2117562            0   -4.1219628 -0.0030312434 
  435000    1.1109161   -4.2191729            0    -4.127152 0.0037709206 
  435300    1.0765091   -4.2181195            0   -4.1289487 -0.0067275825 
  435600   0.91408178   -4.2137836            0   -4.1380672 -0.0097091633 
  435900   0.98849903   -4.2104422            0   -4.1285615 0.0046410885 
  436200    1.1430612   -4.2141837            0   -4.1195001 0.00012934044 
  436500    1.0674541   -4.2155124            0   -4.1270916 -0.0062320438 
  436800   0.98631687   -4.2173485            0   -4.1356486 -0.0055813528 
  437100    1.0514898   -4.2182312            0   -4.1311328 8.0688989e-05 
  437400    1.0762957   -4.2151962            0   -4.1260431 -0.0067965894 
  437700   0.93405987   -4.2167334            0   -4.1393621 -0.0094466704 
  438000   0.99618422   -4.2202298            0   -4.1377125 -0.0035261189 
  438300    1.0044034   -4.2241415            0   -4.1409434 -0.0047619039 
  438600    1.0410657   -4.2223855            0   -4.1361506 0.0039159657 
  438900   0.95611385   -4.2181602            0   -4.1389621 -0.0022305889 
  439200    1.0657838   -4.2162929            0   -4.1280105 -0.0054673571 
  439500    1.0287243   -4.2162389            0   -4.1310262 0.0044749305 
  439800    1.0584142   -4.2141095            0   -4.1264375 -0.0017684503 
  440100    1.0812835   -4.2093561            0   -4.1197898 -0.0052122498 
  440400    1.0911868   -4.2114405            0   -4.1210539 -0.0034565196 
  440700    1.1347348   -4.2089647            0   -4.1149708 -0.0063859862 
  441000    1.1198287    -4.209364            0   -4.1166049 0.00036569319 
  441300    1.0255231   -4.2095235            0    -4.124576 -0.0013297827 
  441600   0.97634563   -4.2092988            0   -4.1284248 -0.008186183 
  441900    1.0283485   -4.2135722            0   -4.1283907 0.0020515449 
  442200    0.9822207   -4.2136026            0    -4.132242 0.0054956916 
  442500   0.96649941   -4.2121425            0   -4.1320841 -0.00030755674 
  442800    1.0113872   -4.2122424            0   -4.1284658 -0.0014700469 
  443100    1.0095345   -4.2143424            0   -4.1307193 -0.0078101237 
  443400    1.0427447    -4.217729            0    -4.131355 -0.0049215823 
  443700    1.0607029   -4.2216474            0   -4.1337858 0.00066161424 
  444000    1.1465492   -4.2236653            0   -4.1286928 -0.0091390055 
  444300    1.0144507   -4.2215912            0   -4.1375609 -0.001524896 
  444600   0.96109338   -4.2213178            0   -4.1417072 0.00046186595 
  444900   0.97663422   -4.2253297            0   -4.1444319 -0.0042587375 
  445200    1.0213228   -4.2260116            0    -4.141412 -0.0028924544 
  445500    0.9224372   -4.2189073            0   -4.1424987 -0.0021134179 
  445800   0.96053469   -4.2247647            0   -4.1452004  0.018067297 
  446100    0.8950256   -4.2165549            0    -4.142417 0.0019810989 
  446400   0.97466711   -4.2245551            0   -4.1438202 0.00020146223 
  446700    1.0021395   -4.2235637            0   -4.1405531 -0.0055512142 
  447000    1.1161047   -4.2230906            0     -4.13064 -0.0057468866 
  447300   0.99654428   -4.2215576            0   -4.1390106 -0.0047435921 
  447600    1.0069556   -4.2216298            0   -4.1382203 0.0021574679 
  447900   0.99487621   -4.2209164            0   -4.1385075  0.005909748 
  448200   0.90491443   -4.2217998            0   -4.1468427 0.0046773559 
  448500   0.99452058   -4.2230722            0   -4.1406927 -0.0084967068 
  448800    1.0662389   -4.2242768            0   -4.1359567 0.0016927314 
  449100    1.1153863   -4.2205114            0   -4.1281202 0.0047333854 
  449400    1.1060396   -4.2178047            0   -4.1261878 0.0013398618 
  449700    1.1009937   -4.2192872            0   -4.1280882 0.0077561208 
  450000    1.0277219   -4.2174645            0   -4.1323348 0.0098679275 
  450300    1.0204916   -4.2159356            0   -4.1314048  -0.01341181 
  450600    1.1755858   -4.2282472            0   -4.1308695 -0.011109509 
  450900   0.94556522   -4.2166551            0   -4.1383308  -0.00464828 
  451200   0.98911827   -4.2176677            0   -4.1357358 0.00076964233 
  451500   0.99246967   -4.2176738            0   -4.1354642 -0.00067561776 
  451800    1.0339196   -4.2210182            0   -4.1353752 -0.0074436764 
  452100    1.0388145   -4.2168212            0   -4.1307727 -0.0075257237 
  452400    1.0152321   -4.2143894            0   -4.1302943 0.0051600109 
  452700    1.0540883   -4.2203366            0   -4.1330229 -0.0065839247 
  453000    1.0060575   -4.2073582            0   -4.1240231 -0.0014335451 
  453300    1.0717312   -4.2137477            0   -4.1249726 -0.010673629 
  453600    1.0562465   -4.2168132            0   -4.1293208 0.0026139891 
  453900    1.0802593   -4.2178933            0   -4.1284119 -0.015073858 
  454200    1.0801303   -4.2168699            0   -4.1273991 -0.0045437598 
  454500    1.0596103   -4.2172909            0   -4.1295199 0.0071267087 
  454800    1.0676238   -4.2162834            0   -4.1278486 0.0020772938 
  455100    1.0361666   -4.2220445            0   -4.1362153 0.0080724939 
  455400     1.130439   -4.2252058            0   -4.1315677 -0.013252269 
  455700    1.1025815   -4.2271965            0    -4.135866 0.0032012053 
  456000     1.036634   -4.2219097            0   -4.1360418 0.0061449516 
  456300   0.99581001   -4.2215296            0   -4.1390433 -0.0039767216 
  456600   0.98647742   -4.2288067            0   -4.1470935 0.0099909196 
  456900   0.96295094   -4.2258997            0   -4.1461352 0.0039205296 
  457200   0.90819894   -4.2249203            0   -4.1496912 0.0050809957 
  457500   0.95188112   -4.2235611            0   -4.1447136 -0.001766143 
  457800   0.94042443   -4.2268017            0   -4.1489032 -0.0088810043 
  458100   0.98566239   -4.2247111            0   -4.1430654   0.00112272 
  458400   0.96038055   -4.2212166            0   -4.1416651  0.011166368 
  458700   0.89754472    -4.217843            0   -4.1434964  0.010510764 
  459000    1.0123847   -4.2211178            0   -4.1372586 0.00080545844 
  459300   0.97771268   -4.2204512            0    -4.139464 0.0080804491 
  459600    1.0538791   -4.2267605            0   -4.1394642 0.0026955308 
  459900    1.0623714   -4.2298872            0   -4.1418874 -0.0065812302 
  460200    1.0103903   -4.2303879            0   -4.1466939  0.007232752 
  460500   0.98215834   -4.2246161            0   -4.1432607 0.0029473858 
  460800    1.0365381   -4.2240309            0    -4.138171 0.0010196071 
  461100     1.039252   -4.2239204            0   -4.1378357 0.00060124464 
  461400    1.0025544   -4.2186308            0   -4.1355858 -0.0037596372 
  461700   0.96493437   -4.2224062            0   -4.1424775 0.0053534483 
  462000   0.91073547   -4.2177862            0   -4.1423469 -0.0015702344 
  462300   0.97744652   -4.2262879            0   -4.1453228 0.0027240565 
  462600    1.0677866   -4.2273137            0   -4.1388654 -0.00018406691 
  462900    0.9461878   -4.2142692            0   -4.1358933 -0.00070585819 
  463200    1.1054997   -4.2202282            0    -4.128656 -0.00069777918 
  463500   0.95117497   -4.2273247            0   -4.1485357 -0.0064410857 
  463800   0.98444385   -4.2234462            0   -4.1419015  0.003257785 
  464100   0.97332072   -4.2247468            0   -4.1441234 0.0034605903 
  464400    1.0347533   -4.2278707            0   -4.1421586 -0.0083068247 
  464700   0.98238584   -4.2330266            0   -4.1516523   -0.0032799 
  465000   0.96036093   -4.2245713            0   -4.1450214 0.0028594069 
  465300   0.97780939   -4.2231187            0   -4.1421234 0.0049024177 
  465600    1.0184589   -4.2276277            0   -4.1432654 0.0019958174 
  465900   0.91980692   -4.2227953            0   -4.1466046 0.0058605153 
  466200   0.98262905   -4.2295946            0   -4.1482002 0.00044860078 
  466500   0.96615235   -4.2293818            0   -4.1493522 0.0026117872 
  466800    1.0778286   -4.2326038            0   -4.1433237 -0.006285399 
  467100    1.0097718   -4.2273198            0   -4.1436771 0.0046695775 
  467400    1.0640911   -4.2353668            0   -4.1472246 0.00080682795 
  467700    1.0542347   -4.2334022            0   -4.1460764 -0.0049541457 
  468000    1.0411563   -4.2282241            0   -4.1419817 -0.0095224473 
  468300   0.97471964   -4.2243537            0   -4.1436144 0.00080337373 
  468600   0.95859902   -4.2273105            0   -4.1479066 -0.0063224494 
  468900   0.93546665   -4.2296554            0   -4.1521676 -0.0020371367 
  469200   0.96607872   -4.2323645            0   -4.1523409 -0.0019875048 
  469500   0.96862113   -4.2318112            0   -4.1515771 -0.0086285405 
  469800   0.97681369    -4.228146            0   -4.1472333 0.0064699012 
  470100    1.0111812   -4.2307269            0   -4.1469674 0.0014031634 
  470400   0.92028035   -4.2313574            0   -4.1551275 -0.0058847472 
  470700   0.95181303   -4.2273299            0    -4.148488 0.0019200413 
  471000   0.98455766   -4.2320065            0   -4.1504523 -0.007122334 
  471300   0.96033151   -4.2274794            0    -4.147932  0.010032965 
  471600    1.0443015   -4.2281349            0    -4.141632 0.0015974202 
  471900     1.113874   -4.2317307            0   -4.1394648 -0.0049694202 
  472200   0.95817965   -4.2223381            0   -4.1429689 -0.0029431664 
  472500    1.1378199   -4.2331469            0   -4.1388974 -0.0069379645 
  472800    1.1085351   -4.2298716            0   -4.1380479 0.0025974828 
  473100    1.0463733   -4.2262234            0   -4.1395488 -0.007509408 
  473400   0.93667362   -4.2200219            0   -4.1424341 -0.0042873871 
  473700   0.91957896   -4.2202481            0   -4.1440763 -0.00081070851 
  474000     1.026149   -4.2304793            0     -4.14548 0.0030468947 
  474300   0.90782264   -4.2275988            0   -4.1524009 -0.004898069 
  474600   0.98090181   -4.2368554            0    -4.155604 -0.0067829125 
  474900   0.95126123   -4.2353776            0   -4.1565814 0.0058275086 
  475200    1.0398961   -4.2332559            0   -4.1471178 -0.0013200439 
  475500   0.88760299   -4.2306654            0   -4.1571423 0.0069798283 
  475800   0.97780224   -4.2313167            0    -4.150322 0.0035016486 
  476100   0.96376742   -4.2387545            0   -4.1589224 -0.0056100588 
  476400   0.94528858   -4.2382583            0   -4.1599569 -0.0019094666 
  476700    1.0305745   -4.2438702            0   -4.1585043 -0.011175509 
  477000   0.90847111   -4.2371442            0   -4.1618925  0.010451944 
  477300   0.85287578   -4.2384078            0   -4.1677613 -0.0094261777 
  477600   0.96435992   -4.2362548            0   -4.1563737 0.00053831594 
  477900    1.0401338   -4.2372443            0   -4.1510865 0.0021337949 
  478200   0.99151262   -4.2335117            0   -4.1513814 -0.0026571355 
  478500   0.95737949    -4.234406            0    -4.155103  0.011668557 
  478800    1.0203141   -4.2354389            0   -4.1509229 -0.0028042882 
  479100    1.0415983   -4.2308096            0   -4.1445306 0.0038296088 
  479400    1.0074691   -4.2368795            0   -4.1534275 -0.004012679 
  479700   0.94477082   -4.2332644            0   -4.1550059 -0.00059553104 
  480000   0.90900228   -4.2379892            0   -4.1626935 0.0089005501 
  480300   0.91118504    -4.237971            0   -4.1624945 0.00032501023 
  480600   0.89387886   -4.2330858            0   -4.1590428 0.0020864607 
  480900   0.88895142   -4.2354351            0   -4.1618003 -0.0025061064 
  481200    1.1035511   -4.2421837            0   -4.1507729 -0.001842095 
  481500    0.9895261   -4.2334029            0   -4.1514372 0.0044128377 
  481800   0.98925871   -4.2438523            0   -4.1619087 -0.0037841904 
  482100   0.99504848   -4.2382976            0   -4.1558745 -0.00020336829 
  482400    1.1055087   -4.2384447            0   -4.1468717 0.0057579449 
  482700    1.0898073   -4.2333893            0   -4.1431169 0.0029841354 
  483000    1.0161138   -4.2337506            0   -4.1495825 0.0092745724 
  483300    1.0300043   -4.2396003            0   -4.1542816 -0.0082288564 
  483600    1.0171435   -4.2396355            0   -4.1553821 0.0047811849 
  483900    0.9536656   -4.2409884            0   -4.1619931 0.0095960207 
  484200    1.0427252   -4.2398815            0   -4.1535091 -0.005070402 
  484500    1.0165437   -4.2399968            0   -4.1557931 -0.0035960396 
  484800     1.002847    -4.243758            0   -4.1606889 0.0095370658 
  485100    1.0150235   -4.2439412            0   -4.1598634 0.0091890183 
  485400   0.95282135   -4.2409969            0   -4.1620715 0.0043296916 
  485700    1.0594399   -4.2472212            0   -4.1594642 -0.0026483743 
  486000    1.0180051   -4.2456654            0   -4.1613407 0.0015500624 
  486300   0.95061206   -4.2487232            0   -4.1699808  0.011348855 
  486600   0.95699865   -4.2469651            0   -4.1676937 -0.0033904723 
  486900   0.91392706   -4.2523704            0   -4.1766667 -0.0034397981 
  487200   0.85760105   -4.2443733            0   -4.1733354 -0.0017710667 
  487500   0.90082491   -4.2459643            0    -4.171346 -0.010010606 
  487800   0.82418799   -4.2438932            0   -4.1756229 0.0035294536 
  488100    0.8886896   -4.2470968            0   -4.1734836 0.0001841359 
  488400   0.88640733   -4.2464546            0   -4.1730305  0.011876944 
  488700   0.98229103   -4.2487962            0   -4.1674297 -0.0037311182 
  489000   0.94999825   -4.2489658            0   -4.1702743 -0.0032766547 
  489300   0.98800526    -4.249982            0   -4.1681422 0.00027551959 
  489600    1.0276996   -4.2514238            0    -4.166296 0.0045839733 
  489900   0.98667989   -4.2523715            0   -4.1706415 0.0032055797 
  490200   0.88823582   -4.2495652            0   -4.1759897 -0.0054210699 
  490500   0.88310184   -4.2439014            0   -4.1707511 0.00031574389 
  490800   0.94119425   -4.2431923            0     -4.16523 0.00080024449 
  491100   0.94193382   -4.2468155            0   -4.1687919 -0.003406265 
  491400   0.95435402   -4.2428122            0   -4.1637599 -0.0031789155 
  491700       0.9603    -4.252153            0   -4.1726081 -0.0048698884 
  492000    1.0173333   -4.2509748            0   -4.1667057  0.015001951 
  492300   0.92364938   -4.2458369            0   -4.1693279 0.0064220785 
  492600    1.0804169   -4.2490287            0   -4.1595342 0.0013531241 
  492900    1.0822286   -4.2486179            0   -4.1589733 -0.001392897 
  493200    1.0330788   -4.2501503            0   -4.1645769  0.004938094 
  493500   0.97578483   -4.2521904            0   -4.1713629 -0.0013807708 
  493800     1.044681   -4.2542397            0   -4.1677053 0.0085330063 
  494100    0.9445703   -4.2492227            0   -4.1709808  -0.00307692 
  494400   0.97447332   -4.2525706            0   -4.1718517 0.0045605122 
  494700    1.0207913   -4.2556367            0   -4.1710812 0.0051094367 
  495000    1.0530485   -4.2567022            0   -4.1694747 -0.0026369318 
  495300    1.0494127   -4.2589699            0   -4.1720436 0.00028053287 
  495600    1.1191822   -4.2542822            0   -4.1615766 -0.0071693626 
  495900    1.0590078   -4.2590532            0    -4.171332 9.3406238e-05 
  496200   0.93540396   -4.2547006            0    -4.177218 -0.0007631399 
  496500   0.94571025   -4.2599164            0     -4.18158 0.0040622583 
  496800    0.9664959   -4.2583099            0   -4.1782518 0.0070906241 
  497100   0.99317638   -4.2559416            0   -4.1736735 0.0086080199 
  497400    1.0613534   -4.2632168            0   -4.1753013 0.0045041192 
  497700    1.0191481   -4.2568881            0   -4.1724686 -0.0044426104 
  498000    1.1154513   -4.2565762            0   -4.1641797 -0.00033309892 
  498300    1.0145777   -4.2584808            0     -4.17444 -0.003979479 
  498600   0.90617894   -4.2584406            0   -4.1833788 -0.00047427646 
  498900   0.96818781   -4.2627442            0    -4.182546 -0.0028283786 
  499200    1.0366061   -4.2618252            0   -4.1759596 -0.004968714 
  499500   0.94467871   -4.2610187            0   -4.1827678  0.011261013 
  499800      1.00286   -4.2631637            0   -4.1800934 0.0088386479 
  500000    1.0834756   -4.2669634            0   -4.1772155 0.00077154953 
Loop time of 192.012 on 1 procs for 500000 steps with 3000 atoms

Performance: 224985.571 tau/day, 2604.000 timesteps/s
97.2% CPU use with 1 MPI tasks x no OpenMP threads

MPI task timing breakdown:
Section |  min time  |  avg time  |  max time  |%varavg| %total
---------------------------------------------------------------
Pair    | 47.912     | 47.912     | 47.912     |   nan | 24.95
Bond    | 0.052592   | 0.052592   | 0.052592   |   0.0 |  0.03
Neigh   | 1.7255     | 1.7255     | 1.7255     |   0.0 |  0.90
Comm    | 1.0695     | 1.0695     | 1.0695     |   0.0 |  0.56
Output  | 12.668     | 12.668     | 12.668     |   0.0 |  6.60
Modify  | 123.45     | 123.45     | 123.45     |   0.0 | 64.29
Other   |            | 5.131      |            |       |  2.67

Nlocal:    3000 ave 3000 max 3000 min
Histogram: 1 0 0 0 0 0 0 0 0 0
Nghost:    221 ave 221 max 221 min
Histogram: 1 0 0 0 0 0 0 0 0 0
Neighs:    8000 ave 8000 max 8000 min
Histogram: 1 0 0 0 0 0 0 0 0 0

Total # of neighbors = 8000
Ave neighs/atom = 2.66667
Ave special neighs/atom = 0
Neighbor list builds = 1355
Dangerous builds = 0
Total wall time: 0:03:12
