LAMMPS (13 Apr 2017)
OMP_NUM_THREADS environment is not set. Defaulting to 1 thread. (../comm.cpp:90)
  using 1 OpenMP thread(s) per MPI task
#added some comments, visualise the oputput with "vmd test.xyz -e vmd_script"

units				lj 							#reduced MD units
atom_style			full  					#format of the configurational input
#bond_style     		harmonic
boundary 			p p p 				   		#periodic boundaries in all directions
atom_modify			sort 0 1   					#format of the output
read_data			lammps.data  					#file from which the initial configuraiton, bonds, and angles are read
  orthogonal box = (-50 -50 -50) to (50 50 50)
  1 by 1 by 1 MPI processor grid
  reading atoms ...
  600 atoms
  0 = max # of 1-2 neighbors
  0 = max # of 1-3 neighbors
  0 = max # of 1-4 neighbors
  1 = max # of special neighbors
neighbor        1 bin
neigh_modify		every 1 delay 1 			#how the neighbour list is built
pair_style			lj/cut 1.3  				#define the potential and the largest cut-off in the system
pair_coeff			1 1 10 1.0 1.3 			#interactions between particles of type 1: epsilon, sigma, cut-off
pair_modify			shift yes 					#shift the potential to 0 at the cut-off to ensure continuity
#bond_coeff 			* 8 0.9
dump				0 all xyz 100 test.xyz		#write the output file in the xyz form every 100 steps
velocity 			all create 1.0 1 			#create the initail velocities, around temp=1
fix					 0 all rigid/nve molecule					#perform nve integration
20 rigid bodies with 600 atoms
fix					3 all langevin 1 1 1 1000 	#add random noise via langevin equation of motion
thermo				300							#how often the output is written
timestep			0.001						#size of the time-step for the integration
run					500000						#run the simulation for this number of steps
Neighbor list info ...
  update every 1 steps, delay 1 steps, check yes
  max neighbors/atom: 2000, page size: 100000
  master list distance cutoff = 2.3
  ghost atom cutoff = 2.3
  binsize = 1.15, bins = 87 87 87
  1 neighbor lists, perpetual/occasional/extra = 1 0 0
  (1) pair lj/cut, perpetual
      attributes: half, newton on
      pair build: half/bin/newton
      stencil: half/bin/3d/newton
      bin: standard
Per MPI rank memory allocation (min/avg/max) = 10.91 | 10.91 | 10.91 Mbytes
Step Temp E_pair E_mol TotEng Press 
       0    1.0793899   -3.3137453            0   -3.2264946  -0.43798679 
     300    1.2117568   -3.3137453            0    -3.215795 -0.00092145527 
     600    1.3598442   -3.3137453            0   -3.2038246 -0.00014999981 
     900    1.1493539   -3.3137453            0   -3.2208392 0.00038725955 
    1200     1.175968   -3.3137453            0   -3.2186879 0.00081146659 
    1500    1.0335099   -3.3137453            0   -3.2302033 -0.00079322493 
    1800    1.0536204   -3.3137453            0   -3.2285777 0.0035053378 
    2100    1.2765297   -3.3137453            0   -3.2105592 0.0031577267 
    2400   0.92125714   -3.3137453            0    -3.239277 0.0018222405 
    2700   0.97787387   -3.3137453            0   -3.2347005 0.0040308964 
    3000    1.0414522   -3.3137453            0   -3.2295613 0.0029870252 
    3300    1.0763342   -3.3137453            0   -3.2267416  0.001852954 
    3600    1.0114909   -3.3137453            0   -3.2319831 0.0012360356 
    3900    0.8433452   -3.3137453            0   -3.2455749 -0.006041481 
    4200    1.0486826   -3.3137453            0   -3.2289768 -0.0012265301 
    4500   0.88355153   -3.3137453            0   -3.2423249 0.0018426365 
    4800    1.0129259   -3.3137453            0   -3.2318671 -0.001882309 
    5100   0.99972984   -3.3137453            0   -3.2329338 -0.00030639811 
    5400   0.99943516   -3.3137453            0   -3.2329576 0.0020975295 
    5700    1.0215849   -3.3137453            0   -3.2311672 -0.0020886212 
    6000    1.0073782   -3.3137453            0   -3.2323156 0.0042918084 
    6300    1.2609887   -3.3137453            0   -3.2118154 0.0012157554 
    6600     1.287565   -3.3137453            0   -3.2096672 -0.0031385849 
    6900    1.3691044   -3.3137453            0    -3.203076 -0.0023567282 
    7200    1.2532845   -3.3137453            0   -3.2124382 0.0030135989 
    7500    1.1472426   -3.3137453            0   -3.2210099 0.0023492181 
    7800    1.0812663   -3.3137453            0    -3.226343 -0.00071544862 
    8100      1.07403   -3.3137453            0   -3.2269279 0.00051479312 
    8400    1.1687487   -3.3137453            0   -3.2192715 0.0046017747 
    8700    1.0560023   -3.3137453            0   -3.2283851 0.0015330522 
    9000    1.0454446   -3.3137453            0   -3.2292386 -0.00055954802 
    9300    1.1316566   -3.3137453            0   -3.2222698 -0.0032198091 
    9600    1.1754406   -3.3137453            0   -3.2187305 0.0024451281 
    9900    1.0986614   -3.3137453            0   -3.2249369 0.00082673562 
   10200    1.2059119   -3.3137453            0   -3.2162674 0.0016371033 
   10500   0.87106486   -3.3137453            0   -3.2433342 0.0016021122 
   10800      1.01196   -3.3137453            0   -3.2319452 0.0003241329 
   11100    1.1103788   -3.3137453            0   -3.2239897 0.0030405753 
   11400    1.0950061   -3.3137453            0   -3.2252323 0.0019959611 
   11700    1.0958791   -3.3137453            0   -3.2251618 -0.00096977836 
   12000    1.1947755   -3.3137453            0   -3.2171676 -0.0071617327 
   12300    1.3088019   -3.3137453            0   -3.2079505 0.0010500428 
   12600    1.1831368   -3.3137453            0   -3.2181084 0.0011144425 
   12900    1.2067591   -3.3137453            0    -3.216199 -0.003080029 
   13200   0.93441567   -3.3137453            0   -3.2382134 -0.0034597879 
   13500   0.85632852   -3.3137453            0   -3.2445254 0.0030003091 
   13800    1.1106677   -3.3137453            0   -3.2239663 -0.0013904552 
   14100    1.0113912   -3.3137453            0   -3.2319912 -0.0014316411 
   14400    1.1660495   -3.3137453            0   -3.2194897 0.0035006313 
   14700   0.94340217   -3.3137453            0    -3.237487 -0.0025678777 
   15000   0.83673571   -3.3137453            0   -3.2461092 0.0028155673 
   15300    1.0362383   -3.3137453            0   -3.2299827 -0.00074844997 
   15600    1.0438792   -3.3137453            0   -3.2293651 0.0024920227 
   15900    1.0616641   -3.3137453            0   -3.2279275 -0.00054233275 
   16200   0.73144527   -3.3137453            0   -3.2546202 -0.00035879057 
   16500   0.87757445   -3.3137453            0   -3.2428081 0.0021780297 
   16800   0.96029427   -3.3137453            0   -3.2361215 0.0016414629 
   17100     1.047494   -3.3137453            0   -3.2290729 0.0034323508 
   17400    0.7172192   -3.3137453            0   -3.2557701 0.00037270914 
   17700   0.91541915   -3.3137453            0   -3.2397489 0.0015576941 
   18000   0.77176285   -3.3137453            0   -3.2513612 0.0002994282 
   18300   0.84886229   -3.3137453            0    -3.245129 -0.0028504286 
   18600   0.90220221   -3.3137453            0   -3.2408173 -0.0018338338 
   18900   0.82600278   -3.3137453            0   -3.2469768 -0.0010215283 
   19200    1.0397431   -3.3137453            0   -3.2296994 0.0012454906 
   19500    1.1156463   -3.3137453            0   -3.2235639 -0.0054709226 
   19800    1.2438185   -3.3137453            0   -3.2132033 -0.0027405168 
   20100    1.1879552   -3.3137453            0   -3.2177189 -0.002579824 
   20400   0.91553216   -3.3137453            0   -3.2397398 -0.0017758267 
   20700   0.99041484   -3.3137453            0   -3.2336868 -0.00092800705 
   21000   0.95587971   -3.3137453            0   -3.2364784 0.0026254681 
   21300    1.0540235   -3.3137453            0   -3.2285451 -0.00052801448 
   21600    1.1149842   -3.3137453            0   -3.2236174 -0.0023936796 
   21900    1.0601549   -3.3137453            0   -3.2280495 0.0028734862 
   22200    1.1081802   -3.3137453            0   -3.2241674 -0.00083707482 
   22500      1.04634   -3.3137453            0   -3.2291662 0.0056627678 
   22800   0.99943987   -3.3137453            0   -3.2329573 -0.0017587615 
   23100   0.82401981   -3.3137453            0   -3.2471371 0.0010524056 
   23400   0.83468991   -3.3137453            0   -3.2462746 0.0016918243 
   23700   0.87133913   -3.3137453            0   -3.2433121 0.00089309464 
   24000   0.90336842   -3.3137453            0    -3.240723 0.00041327227 
   24300    1.0383993   -3.3137453            0    -3.229808 -0.00079452015 
   24600    1.0857866   -3.3137453            0   -3.2259776 0.00019536146 
   24900    1.1452666   -3.3137453            0   -3.2211696 -0.0021723878 
   25200    1.2677811   -3.3137453            0   -3.2112664 0.00063128664 
   25500    1.1227456   -3.3137453            0     -3.22299 -0.0024587892 
   25800   0.98651718   -3.3137453            0   -3.2340018 -0.0028190335 
   26100    1.0751772   -3.3137453            0   -3.2268352 -0.0043964524 
   26400   0.96136719   -3.3137453            0   -3.2360348 0.0020490099 
   26700   0.90973187   -3.3137453            0   -3.2402087 0.00070928067 
   27000   0.75512594   -3.3137453            0    -3.252706 -0.0029657638 
   27300    1.0004055   -3.3137453            0   -3.2328792 -0.0020565694 
   27600    1.0377343   -3.3137453            0   -3.2298618 0.00029953375 
   27900    1.0503129   -3.3137453            0    -3.228845 -9.6534455e-05 
   28200    1.0816282   -3.3137453            0   -3.2263137 -0.00077828625 
   28500    1.2513097   -3.3137453            0   -3.2125978 9.1577208e-05 
   28800    1.2846837   -3.3137453            0   -3.2099001 -0.004396802 
   29100     1.025857   -3.3137453            0   -3.2308219 -0.0042638043 
   29400   0.78753442   -3.3137453            0   -3.2500863 0.0024485022 
   29700    1.0510406   -3.3137453            0   -3.2287862 -0.002995598 
   30000    0.8801728   -3.3137453            0    -3.242598 -0.0019561566 
   30300   0.83194093   -3.3137453            0   -3.2464968 -0.0014188481 
   30600   0.93580107   -3.3137453            0   -3.2381014 -0.0045640658 
   30900    0.9136499   -3.3137453            0    -3.239892 0.00011999622 
   31200   0.98213985   -3.3137453            0   -3.2343557 -0.0010861512 
   31500   0.72363038   -3.3137453            0   -3.2552519 -0.0037800481 
   31800   0.84120341   -3.3137453            0    -3.245748 -0.0016709022 
   32100   0.82873722   -3.3137453            0   -3.2467557 -0.00016300099 
   32400   0.90021539   -3.3137453            0   -3.2409779 -0.0011221011 
   32700   0.94467535   -3.3137453            0   -3.2373841 0.0038868707 
   33000   0.86121207   -3.3137453            0   -3.2441307 0.00031580816 
   33300   0.85819555   -3.3137453            0   -3.2443745 0.0013504798 
   33600   0.98849115   -3.3137453            0   -3.2338423 -0.0031202987 
   33900   0.96452685   -3.3137453            0   -3.2357794  0.002196222 
   34200   0.74987494   -3.3137453            0   -3.2531304 -0.0031571445 
   34500   0.90911274   -3.3137453            0   -3.2402587 -0.0023108865 
   34800    0.9976352   -3.3137453            0   -3.2331031 0.0010711556 
   35100   0.91524981   -3.3137453            0   -3.2397626 0.00070296153 
   35400    0.9587028   -3.3137453            0   -3.2362502 -0.0018538306 
   35700    1.1669156   -3.3137453            0   -3.2194196 0.0023078941 
   36000   0.92946438   -3.3137453            0   -3.2386136 -0.0037842777 
   36300    1.0238987   -3.3137453            0   -3.2309802 -0.00041783609 
   36600    1.0166543   -3.3137453            0   -3.2315658 0.0018028004 
   36900   0.77680129   -3.3137453            0   -3.2509539 0.00037227088 
   37200   0.89589012   -3.3137453            0   -3.2413275 -0.0088076431 
   37500   0.96984939   -3.3137453            0   -3.2353492 -0.0010947328 
   37800   0.98526306   -3.3137453            0   -3.2341032 -0.0012160762 
   38100   0.96389866   -3.3137453            0   -3.2358302  0.001605638 
   38400    1.0029484   -3.3137453            0   -3.2326737 -0.0015088589 
   38700    1.2962317   -3.3137453            0   -3.2089666 -0.00022604173 
   39000    1.0256262   -3.3137453            0   -3.2308405 -0.00041973158 
   39300   0.76578761   -3.3137453            0   -3.2518442 -0.00056333849 
   39600    1.0118055   -3.3137453            0   -3.2319577 -0.0023951429 
   39900   0.92118018   -3.3137453            0   -3.2392833 -0.0025806404 
   40200    1.0036645   -3.3137453            0   -3.2326158 9.5041855e-05 
   40500    1.1132909   -3.3137453            0   -3.2237543 0.00059063854 
   40800    1.0435643   -3.3137453            0   -3.2293905 0.00037437516 
   41100   0.89681056   -3.3137453            0   -3.2412531 0.00023424599 
   41400   0.83279864   -3.3137453            0   -3.2464274 -0.00085669203 
   41700   0.94074496   -3.3137453            0   -3.2377018 -0.0026351875 
   42000   0.97035586   -3.3137453            0   -3.2353082 0.0022541478 
   42300    1.1548172   -3.3137453            0   -3.2203976 0.00024103146 
   42600    1.1357811   -3.3137453            0   -3.2219364 -0.0063773288 
   42900    1.1393405   -3.3137453            0   -3.2216486 0.00031537605 
   43200    1.1650656   -3.3137453            0   -3.2195692 0.0051405144 
   43500    1.2851739   -3.3137453            0   -3.2098604 0.0009618517 
   43800    1.2955423   -3.3137453            0   -3.2090223 -0.0026516491 
   44100    1.3088119   -3.3137453            0   -3.2079497 0.0024939982 
   44400    1.1704773   -3.3137453            0   -3.2191317 -0.00061132309 
   44700    1.3143674   -3.3137453            0   -3.2075006 0.00051206788 
   45000     1.233887   -3.3137453            0   -3.2140061 -0.0016666969 
   45300    1.2848831   -3.3137453            0   -3.2098839 -0.00062119691 
   45600   0.93472493   -3.3137453            0   -3.2381884 0.0015163976 
   45900    1.0917895   -3.3137453            0   -3.2254923 -0.00055295023 
   46200    1.0594245   -3.3137453            0   -3.2281085 0.0041292582 
   46500    1.2147562   -3.3137453            0   -3.2155525   0.00545691 
   46800    1.3138182   -3.3137453            0    -3.207545 -0.0023255819 
   47100    1.1386983   -3.3137453            0   -3.2217005 -0.0025398015 
   47400    1.0502621   -3.3137453            0   -3.2288491 -0.0084180796 
   47700    1.0744519   -3.3137453            0   -3.2268938 0.0033124378 
   48000   0.87916558   -3.3137453            0   -3.2426794 -0.0061875439 
   48300   0.95983781   -3.3137453            0   -3.2361584 -0.0019145968 
   48600    1.0046439   -3.3137453            0   -3.2325366 0.0036225088 
   48900    1.1878158   -3.3137453            0   -3.2177302 0.0012888109 
   49200   0.94063346   -3.3137453            0   -3.2377108 -0.0017206973 
   49500    1.0393885   -3.3137453            0   -3.2297281  0.003899653 
   49800   0.72220808   -3.3137453            0   -3.2553668 -0.00069089324 
   50100   0.69331989   -3.3137453            0    -3.257702 0.0022395306 
   50400   0.94191239   -3.3137453            0   -3.2376074 -0.0017534934 
   50700   0.92180002   -3.3137453            0   -3.2392332 0.0017066086 
   51000    1.0802814   -3.3137453            0   -3.2264226 -0.0046179792 
   51300    1.0760499   -3.3137453            0   -3.2267646 0.0054810937 
   51600    1.1446613   -3.3137453            0   -3.2212185 -0.0024156012 
   51900    1.2452071   -3.3137453            0   -3.2130911 0.0021042336 
   52200    1.0829282   -3.3137453            0   -3.2262086 -0.0012096121 
   52500    1.1041335   -3.3137453            0   -3.2244945 2.8806977e-05 
   52800   0.95215011   -3.3137453            0   -3.2367799 0.0021113123 
   53100    1.0184675   -3.3137453            0   -3.2314192 -0.00052289692 
   53400    0.9820252   -3.3137453            0    -3.234365 -0.0021427531 
   53700    1.0653829   -3.3137453            0   -3.2276269 -0.0034431017 
   54000    1.1145264   -3.3137453            0   -3.2236544 0.0044926459 
   54300    1.0648024   -3.3137453            0   -3.2276738 -0.00093003599 
   54600    1.0286881   -3.3137453            0    -3.230593 -0.00052114173 
   54900    1.1428608   -3.3137453            0   -3.2213641 -0.0023376268 
   55200    1.1746386   -3.3137453            0   -3.2187954 0.0029068442 
   55500    1.1389689   -3.3137453            0   -3.2216787 0.00060013524 
   55800    1.0315359   -3.3137453            0   -3.2303628 -0.0048712363 
   56100    1.0179628   -3.3137453            0     -3.23146 -0.0046789704 
   56400   0.91618039   -3.3137453            0   -3.2396874 0.0014484924 
   56700    1.0802632   -3.3137453            0   -3.2264241 0.0016614071 
   57000   0.84526203   -3.3137453            0     -3.24542 -3.5361291e-05 
   57300   0.89899253   -3.3137453            0   -3.2410768 -0.0042474436 
   57600   0.97837928   -3.3137453            0   -3.2346597 0.00055683343 
   57900    1.0131524   -3.3137453            0   -3.2318488 -0.00092888756 
   58200   0.91405728   -3.3137453            0    -3.239859  0.002019578 
   58500   0.94982273   -3.3137453            0    -3.236968  0.004424379 
   58800   0.96088381   -3.3137453            0   -3.2360739 -0.00054914964 
   59100   0.94132745   -3.3137453            0   -3.2376547 -0.0019892056 
   59400    1.1085172   -3.3137453            0   -3.2241402 0.0036694339 
   59700   0.99897259   -3.3137453            0    -3.232995 -0.0016940652 
   60000    1.1789759   -3.3137453            0   -3.2184448 -0.0015206522 
   60300    1.1164146   -3.3137453            0   -3.2235018 0.00020285663 
   60600     1.263896   -3.3137453            0   -3.2115804 0.0063493948 
   60900    1.3549494   -3.3137453            0   -3.2042202 -0.0009842409 
   61200    1.2230036   -3.3137453            0   -3.2148859 0.00042483798 
   61500    1.1847135   -3.3137453            0    -3.217981 -0.0040598981 
   61800    1.0186359   -3.3137453            0   -3.2314056 0.0039061058 
   62100   0.93622508   -3.3137453            0   -3.2380671 -0.0017676216 
   62400    0.8271064   -3.3137453            0   -3.2468876 -0.0013386124 
   62700   0.88051755   -3.3137453            0   -3.2425702 -0.00042387182 
   63000   0.83632679   -3.3137453            0   -3.2461422 0.00020294707 
   63300   0.88039095   -3.3137453            0   -3.2425804 -8.8301237e-05 
   63600   0.90242366   -3.3137453            0   -3.2407994 0.0011586747 
   63900    1.0626913   -3.3137453            0   -3.2278444 -0.0021160984 
   64200    1.0904635   -3.3137453            0   -3.2255995 -0.0016542667 
   64500    0.9130337   -3.3137453            0   -3.2399418  0.004068551 
   64800   0.95222357   -3.3137453            0   -3.2367739 0.0016289713 
   65100   0.92363571   -3.3137453            0   -3.2390848 0.0034037579 
   65400    1.0784493   -3.3137453            0   -3.2265707 -0.00028022824 
   65700    1.2408932   -3.3137453            0   -3.2134398 5.438479e-06 
   66000    1.2071691   -3.3137453            0   -3.2161658 -0.0004365781 
   66300    1.2873684   -3.3137453            0    -3.209683 0.00011832931 
   66600    1.0506444   -3.3137453            0   -3.2288182 -0.0013778431 
   66900    1.0384475   -3.3137453            0   -3.2298042 -0.0055528943 
   67200      1.23625   -3.3137453            0   -3.2138151 7.852062e-05 
   67500    1.0596621   -3.3137453            0   -3.2280893 0.0013205129 
   67800   0.93652593   -3.3137453            0   -3.2380428  0.002090921 
   68100   0.88560291   -3.3137453            0   -3.2421591 0.0014140867 
   68400   0.85646723   -3.3137453            0   -3.2445142 0.0030237027 
   68700    0.6813488   -3.3137453            0   -3.2586696 0.0031080437 
   69000     1.023876   -3.3137453            0    -3.230982 0.0044385226 
   69300   0.79234744   -3.3137453            0   -3.2496972 -0.0037528573 
   69600   0.93943257   -3.3137453            0   -3.2378079 0.00056517763 
   69900   0.95574419   -3.3137453            0   -3.2364893 0.0013251207 
   70200   0.95825328   -3.3137453            0   -3.2362865 -0.0013770809 
   70500   0.82580456   -3.3137453            0   -3.2469928 0.00057149783 
   70800   0.87489129   -3.3137453            0   -3.2430249 0.00056700836 
   71100   0.95077562   -3.3137453            0    -3.236891 -0.003973639 
   71400   0.86015898   -3.3137453            0   -3.2442158 0.0020191003 
   71700    0.9637776   -3.3137453            0     -3.23584 0.00028113776 
   72000   0.91230797   -3.3137453            0   -3.2400004 0.0017612108 
   72300   0.89707172   -3.3137453            0    -3.241232   0.00168899 
   72600   0.91965693   -3.3137453            0   -3.2394064 0.0017783899 
   72900   0.83208196   -3.3137453            0   -3.2464854 0.0015690489 
   73200   0.99642234   -3.3137453            0   -3.2332012 0.0052385293 
   73500    1.1278911   -3.3137453            0   -3.2225741 0.0025241779 
   73800    1.0649177   -3.3137453            0   -3.2276645 0.00015039336 
   74100   0.97449877   -3.3137453            0   -3.2349733 -0.00052630187 
   74400    1.1248428   -3.3137453            0   -3.2228205 -0.00032465357 
   74700    1.2600797   -3.3137453            0   -3.2118889 0.0020388101 
   75000    1.2707201   -3.3137453            0   -3.2110288 0.0025988197 
   75300    1.2447685   -3.3137453            0   -3.2131265 -0.00015852401 
   75600     1.156792   -3.3137453            0    -3.220238 0.00048081446 
   75900   0.97847277   -3.3137453            0   -3.2346521  0.002618784 
   76200   0.95744257   -3.3137453            0    -3.236352 -0.00072262689 
   76500   0.89592578   -3.3137453            0   -3.2413247  0.003076437 
   76800   0.93834788   -3.3137453            0   -3.2378955  0.001556197 
   77100    1.0433669   -3.3137453            0   -3.2294065 -0.0011833239 
   77400   0.95664088   -3.3137453            0   -3.2364169 0.0053548345 
   77700   0.98557925   -3.3137453            0   -3.2340777 2.2866241e-05 
   78000    1.1165428   -3.3137453            0   -3.2234914 0.0021676211 
   78300      1.05218   -3.3137453            0   -3.2286941 0.0013800667 
   78600    1.1676516   -3.3137453            0   -3.2193602 0.0019190425 
   78900    1.0854247   -3.3137453            0   -3.2260068 0.00031813708 
   79200     1.056076   -3.3137453            0   -3.2283792 0.00066266781 
   79500    1.0078468   -3.3137453            0   -3.2322777 0.0033038687 
   79800    1.3493215   -3.3137453            0   -3.2046752 -0.0029792883 
   80100    1.3592029   -3.3137453            0   -3.2038764 -0.0030828006 
   80400    1.3570192   -3.3137453            0   -3.2040529 5.4429975e-05 
   80700    1.2433121   -3.3137453            0   -3.2132443 0.00018415848 
   81000    1.2254779   -3.3137453            0   -3.2146859 -0.0037882148 
   81300    1.1225919   -3.3137453            0   -3.2230025 0.00056909074 
   81600    1.0629436   -3.3137453            0   -3.2278241 0.0031031785 
   81900     1.140324   -3.3137453            0   -3.2215691 0.0016737175 
   82200    1.0846068   -3.3137453            0   -3.2260729 -0.0023701928 
   82500   0.97553421   -3.3137453            0   -3.2348896 0.00095237048 
   82800   0.96130536   -3.3137453            0   -3.2360398 0.0016131268 
   83100    1.0312603   -3.3137453            0   -3.2303851 -0.00079716153 
   83400    1.0026774   -3.3137453            0   -3.2326956 -0.0020924057 
   83700    1.0056188   -3.3137453            0   -3.2324578 8.7334864e-06 
   84000    0.9584177   -3.3137453            0   -3.2362732 0.0058570853 
   84300    1.0542151   -3.3137453            0   -3.2285296 0.0038565312 
   84600   0.84253892   -3.3137453            0   -3.2456401 -0.0043742113 
   84900   0.87268369   -3.3137453            0   -3.2432034 0.0013386672 
   85200    1.1498892   -3.3137453            0   -3.2207959 0.00054530412 
   85500    1.1132361   -3.3137453            0   -3.2237587 -0.0024994444 
   85800     1.127449   -3.3137453            0   -3.2226099 -0.0014852178 
   86100    1.3043359   -3.3137453            0   -3.2083115 -0.00036434566 
   86400    1.3449922   -3.3137453            0   -3.2050251 -0.00087601721 
   86700   0.99456883   -3.3137453            0    -3.233351 0.0026882366 
   87000   0.91017224   -3.3137453            0   -3.2401731 0.00094783375 
   87300   0.85419961   -3.3137453            0   -3.2446975 -0.0016929939 
   87600    0.8841912   -3.3137453            0   -3.2422732 -0.0039891857 
   87900   0.80707035   -3.3137453            0   -3.2485071 0.00062214734 
   88200    1.1705627   -3.3137453            0   -3.2191248 0.0016373179 
   88500     1.047299   -3.3137453            0   -3.2290887 -0.0029150176 
   88800    1.0820544   -3.3137453            0   -3.2262793  0.002739339 
   89100    1.1377153   -3.3137453            0     -3.22178 -0.0020391013 
   89400    1.2193348   -3.3137453            0   -3.2151824 0.00018445467 
   89700    1.1560524   -3.3137453            0   -3.2202978 0.0011265387 
   90000    1.0828547   -3.3137453            0   -3.2262146 0.0015049876 
   90300     1.048177   -3.3137453            0   -3.2290177 0.0011071442 
   90600   0.88290861   -3.3137453            0   -3.2423769 -0.0048789608 
   90900     1.023146   -3.3137453            0    -3.231041 -0.00019282306 
   91200    1.0579802   -3.3137453            0   -3.2282253 0.0025189656 
   91500    1.3209948   -3.3137453            0   -3.2069649 0.0016994676 
   91800    1.1269593   -3.3137453            0   -3.2226494 0.0011943221 
   92100   0.99819079   -3.3137453            0   -3.2330582 -0.00031437289 
   92400    1.0608766   -3.3137453            0   -3.2279911 0.00095756746 
   92700     1.008338   -3.3137453            0    -3.232238 0.0030080172 
   93000    1.1008311   -3.3137453            0   -3.2247615 -0.00050186031 
   93300    0.9825279   -3.3137453            0   -3.2343243  0.003674461 
   93600   0.88578325   -3.3137453            0   -3.2421445 -0.00064894002 
   93900   0.79783756   -3.3137453            0   -3.2492535 -0.00094379167 
   94200   0.79179907   -3.3137453            0   -3.2497416 0.0001882076 
   94500    0.9107711   -3.3137453            0   -3.2401247 -0.00011840094 
   94800   0.88776038   -3.3137453            0   -3.2419847 0.0048050787 
   95100   0.99209558   -3.3137453            0   -3.2335509 0.0024834876 
   95400   0.94753177   -3.3137453            0   -3.2371532 0.00038909467 
   95700     1.276128   -3.3137453            0   -3.2105916 -0.0028017956 
   96000   0.99832519   -3.3137453            0   -3.2330474 -0.0010048004 
   96300   0.81358727   -3.3137453            0   -3.2479804 -4.1012255e-05 
   96600   0.85724223   -3.3137453            0   -3.2444516 -0.0020566027 
   96900   0.71692893   -3.3137453            0   -3.2557936 -0.00015314685 
   97200   0.96084166   -3.3137453            0   -3.2360773 0.0035688066 
   97500    0.7238179   -3.3137453            0   -3.2552367 0.0017842794 
   97800   0.82483754   -3.3137453            0    -3.247071 -0.00050580219 
   98100   0.91089647   -3.3137453            0   -3.2401145 -0.00073015949 
   98400    1.0394368   -3.3137453            0   -3.2297242 0.0025350007 
   98700    1.1564045   -3.3137453            0   -3.2202693 -0.00067151839 
   99000    1.1083475   -3.3137453            0   -3.2241539 -0.0019894813 
   99300    1.1812598   -3.3137453            0   -3.2182602 0.00040916848 
   99600    1.1302323   -3.3137453            0   -3.2223849 -0.0061045681 
   99900     1.010022   -3.3137453            0   -3.2321019 -0.0046025572 
  100200    1.2082259   -3.3137453            0   -3.2160804 0.0022215127 
  100500    1.0970366   -3.3137453            0   -3.2250682 -0.0011194491 
  100800    0.9650007   -3.3137453            0   -3.2357411 0.0025782312 
  101100    1.0517068   -3.3137453            0   -3.2287324 0.00048697566 
  101400   0.97344836   -3.3137453            0   -3.2350582 -0.0013891959 
  101700    1.0166796   -3.3137453            0   -3.2315637 -0.0011200184 
  102000    1.2147507   -3.3137453            0    -3.215553 -0.00041771872 
  102300   0.95791528   -3.3137453            0   -3.2363138 -0.0043114805 
  102600   0.97454885   -3.3137453            0   -3.2349693 0.0010658261 
  102900    1.1152283   -3.3137453            0   -3.2235977 -0.003653758 
  103200    1.1127547   -3.3137453            0   -3.2237977 -0.00019681902 
  103500   0.94028935   -3.3137453            0   -3.2377386 -0.00096485399 
  103800    0.9988243   -3.3137453            0    -3.233007 -0.0010265872 
  104100   0.84907001   -3.3137453            0   -3.2451122 -0.0035856985 
  104400   0.80016637   -3.3137453            0   -3.2490652 0.0004098286 
  104700   0.73203005   -3.3137453            0   -3.2545729 -0.0025567476 
  105000    1.0033628   -3.3137453            0   -3.2326402 -0.0029085803 
  105300    1.2119012   -3.3137453            0   -3.2157833 0.0054555955 
  105600    1.0550166   -3.3137453            0   -3.2284648 -0.0032077878 
  105900     1.147571   -3.3137453            0   -3.2209833 -0.0025641974 
  106200    0.9538949   -3.3137453            0   -3.2366388 -0.0035072539 
  106500   0.83851005   -3.3137453            0   -3.2459658 -0.0052316441 
  106800   0.94810645   -3.3137453            0   -3.2371067 -0.0021851924 
  107100    1.1183438   -3.3137453            0   -3.2233459 -0.0026667585 
  107400    1.2787211   -3.3137453            0    -3.210382 -0.0029861667 
  107700    1.4599971   -3.3137453            0   -3.1957289 -0.00095124021 
  108000    1.4020134   -3.3137453            0   -3.2004159 -0.0035285917 
  108300    1.4631713   -3.3137453            0   -3.1954723 -0.0008544991 
  108600    1.2424143   -3.3137453            0   -3.2133168 -0.0020573623 
  108900     1.308761   -3.3137453            0   -3.2079538 0.0016507701 
  109200    1.1207279   -3.3137453            0   -3.2231531 0.0048847148 
  109500   0.99876346   -3.3137453            0   -3.2330119 -0.00084444879 
  109800   0.93524827   -3.3137453            0   -3.2381461 -0.00071595912 
  110100    1.1817535   -3.3137453            0   -3.2182202 -0.0023845078 
  110400    1.2354058   -3.3137453            0   -3.2138834 0.0029356456 
  110700    1.2639179   -3.3137453            0   -3.2115786 3.9218806e-05 
  111000     1.365596   -3.3137453            0   -3.2033596 0.0011944871 
  111300     1.379521   -3.3137453            0    -3.202234 -0.0024017256 
  111600    1.1341296   -3.3137453            0   -3.2220698 -0.0020162309 
  111900    1.2240658   -3.3137453            0      -3.2148 0.00052781305 
  112200    1.1385691   -3.3137453            0    -3.221711 0.00095000684 
  112500   0.99748283   -3.3137453            0   -3.2331155 -0.00087512231 
  112800   0.95139432   -3.3137453            0   -3.2368409 7.7726677e-07 
  113100     1.086789   -3.3137453            0   -3.2258965 0.0042832357 
  113400    1.1669903   -3.3137453            0   -3.2194136 -0.0023564644 
  113700    1.0590763   -3.3137453            0   -3.2281367 -8.2456317e-05 
  114000    1.0195539   -3.3137453            0   -3.2313314 0.00024948951 
  114300    1.1174212   -3.3137453            0   -3.2234204 -0.0010690102 
  114600    1.1482697   -3.3137453            0   -3.2209269 0.00034148034 
  114900    1.5057286   -3.3137453            0   -3.1920323 -0.0033950316 
  115200    1.3417956   -3.3137453            0   -3.2052835 -0.00095470533 
  115500   0.99507252   -3.3137453            0   -3.2333103 -0.0039169202 
  115800     1.058712   -3.3137453            0   -3.2281661 -0.002712796 
  116100   0.94036706   -3.3137453            0   -3.2377323 0.0033785874 
  116400    1.1236533   -3.3137453            0   -3.2229167 0.0010945716 
  116700    1.0364362   -3.3137453            0   -3.2299667 4.8881048e-05 
  117000    1.1556945   -3.3137453            0   -3.2203267 -0.00092636661 
  117300    1.0245356   -3.3137453            0   -3.2309287 0.0022640005 
  117600    1.0866333   -3.3137453            0   -3.2259091 -5.5792899e-05 
  117900    1.0328293   -3.3137453            0   -3.2302583 0.00061829214 
  118200    0.8143596   -3.3137453            0   -3.2479179 -0.0011535062 
  118500   0.99844034   -3.3137453            0   -3.2330381 -0.00036845783 
  118800    1.1961424   -3.3137453            0   -3.2170571 0.0012194467 
  119100    1.1392884   -3.3137453            0   -3.2216528 0.0029286103 
  119400    1.0649024   -3.3137453            0   -3.2276657 0.00034210971 
  119700   0.90817151   -3.3137453            0   -3.2403348 -0.0013946238 
  120000   0.91352755   -3.3137453            0   -3.2399018 -0.0041742541 
  120300   0.95833605   -3.3137453            0   -3.2362798 -0.0013899292 
  120600   0.79690328   -3.3137453            0    -3.249329 0.0041859961 
  120900    0.9496604   -3.3137453            0   -3.2369811 0.0030732068 
  121200    1.0812115   -3.3137453            0   -3.2263474 -0.00057031934 
  121500    1.0437298   -3.3137453            0   -3.2293772 -0.0027353363 
  121800    1.0981567   -3.3137453            0   -3.2249777 -0.00041329828 
  122100    1.1289342   -3.3137453            0   -3.2224898 -0.0040923925 
  122400    1.2834941   -3.3137453            0   -3.2099962  0.002027989 
  122700     1.342507   -3.3137453            0    -3.205226 0.0033034154 
  123000    1.1453951   -3.3137453            0   -3.2211592 -0.0022571711 
  123300   0.92469839   -3.3137453            0   -3.2389989 -0.00042366235 
  123600    1.0092441   -3.3137453            0   -3.2321648 0.0025027062 
  123900   0.90828983   -3.3137453            0   -3.2403252 -0.0004494825 
  124200   0.75717768   -3.3137453            0   -3.2525401 -0.0072640224 
  124500   0.79997266   -3.3137453            0   -3.2490809 0.00066864965 
  124800   0.90216217   -3.3137453            0   -3.2408205 -0.0017025633 
  125100   0.85506729   -3.3137453            0   -3.2446274 -0.0062144162 
  125400   0.86402052   -3.3137453            0   -3.2439037 0.0015185014 
  125700   0.91176791   -3.3137453            0   -3.2400441 -0.0011250396 
  126000    1.2335745   -3.3137453            0   -3.2140314 0.0028955244 
  126300    1.1373527   -3.3137453            0   -3.2218093 -0.0025710455 
  126600    1.0928143   -3.3137453            0   -3.2254095 -7.0825045e-05 
  126900   0.99744091   -3.3137453            0   -3.2331188 0.00081128316 
  127200    1.1797778   -3.3137453            0     -3.21838 -0.00064058071 
  127500    1.0332723   -3.3137453            0   -3.2302225 -0.0021717855 
  127800   0.98830306   -3.3137453            0   -3.2338575 -0.00014567766 
  128100    1.1560104   -3.3137453            0   -3.2203012 0.0029666017 
  128400   0.92252258   -3.3137453            0   -3.2391747 -0.0015462734 
  128700    0.9202667   -3.3137453            0   -3.2393571 0.00014197546 
  129000   0.99078184   -3.3137453            0   -3.2336571 0.0015361009 
  129300    1.0472318   -3.3137453            0   -3.2290941 0.0041430596 
  129600   0.93393109   -3.3137453            0   -3.2382526 0.00021798978 
  129900    1.0939657   -3.3137453            0   -3.2253164 -0.0020710147 
  130200     1.375136   -3.3137453            0   -3.2025885 0.0030621583 
  130500   0.97575705   -3.3137453            0   -3.2348716 0.00043991701 
  130800   0.87706004   -3.3137453            0   -3.2428496 -0.0010094483 
  131100   0.85539039   -3.3137453            0   -3.2446013 -0.0020463257 
  131400    1.0246647   -3.3137453            0   -3.2309183 -0.0021876233 
  131700    1.0476778   -3.3137453            0    -3.229058 -0.00029686656 
  132000     1.050344   -3.3137453            0   -3.2288425 -0.0032345073 
  132300    1.1950625   -3.3137453            0   -3.2171444 0.0082648124 
  132600    1.0879936   -3.3137453            0   -3.2257992 0.0011713667 
  132900    1.1563643   -3.3137453            0   -3.2202725 0.0011848243 
  133200    1.0000282   -3.3137453            0   -3.2329097 0.0031814623 
  133500    1.0387997   -3.3137453            0   -3.2297757 -0.00024408211 
  133800   0.67919133   -3.3137453            0    -3.258844 0.0051708195 
  134100   0.88728325   -3.3137453            0   -3.2420233 0.0010506517 
  134400    1.1335611   -3.3137453            0   -3.2221158 0.00015408977 
  134700   0.79966755   -3.3137453            0   -3.2491055 -0.0066174437 
  135000   0.82557115   -3.3137453            0   -3.2470117 0.0004227885 
  135300    0.8584572   -3.3137453            0   -3.2443534 -0.0017855961 
  135600   0.74751002   -3.3137453            0   -3.2533216 0.0040888058 
  135900    0.8935304   -3.3137453            0   -3.2415183 -0.00064552622 
  136200   0.96601348   -3.3137453            0   -3.2356592 0.0033826831 
  136500    1.0986493   -3.3137453            0   -3.2249378 -0.0013191496 
  136800    0.9671767   -3.3137453            0   -3.2355652 -0.0051664907 
  137100    1.3817163   -3.3137453            0   -3.2020566 -0.0012498941 
  137400    1.1692655   -3.3137453            0   -3.2192297 0.00011407082 
  137700     1.127468   -3.3137453            0   -3.2226083 0.0016825725 
  138000    1.1297931   -3.3137453            0   -3.2224204 0.0011366974 
  138300    1.1819319   -3.3137453            0   -3.2182058 -0.0012820782 
  138600    1.1450752   -3.3137453            0   -3.2211851 -0.0015898887 
  138900    1.1759979   -3.3137453            0   -3.2186855 -0.0031638917 
  139200    1.1134162   -3.3137453            0   -3.2237442 -0.0008061888 
  139500     1.141608   -3.3137453            0   -3.2214653 0.0015851741 
  139800   0.98564765   -3.3137453            0   -3.2340721  0.003297275 
  140100    1.1194656   -3.3137453            0   -3.2232552 -0.001871533 
  140400   0.98910032   -3.3137453            0    -3.233793 -0.00018558053 
  140700    1.0112278   -3.3137453            0   -3.2320044 -9.6021636e-05 
  141000    1.0864904   -3.3137453            0   -3.2259207 0.0021399643 
  141300    1.1360322   -3.3137453            0   -3.2219161 -0.0014376405 
  141600    1.0819728   -3.3137453            0   -3.2262859 -0.00018036872 
  141900     1.110097   -3.3137453            0   -3.2240125 -0.004617863 
  142200    1.1786717   -3.3137453            0   -3.2184694 -0.0013053374 
  142500    1.3490509   -3.3137453            0    -3.204697 0.00092886659 
  142800   0.96576383   -3.3137453            0   -3.2356794  0.002271947 
  143100   0.97062039   -3.3137453            0   -3.2352868 0.0019577407 
  143400   0.88562264   -3.3137453            0   -3.2421575 0.0010146943 
  143700   0.90047924   -3.3137453            0   -3.2409566 0.0036117224 
  144000    1.0589634   -3.3137453            0   -3.2281458 -0.0029984582 
  144300   0.99648232   -3.3137453            0   -3.2331963  0.001453275 
  144600    1.0749777   -3.3137453            0   -3.2268513 0.0016783846 
  144900    1.1125134   -3.3137453            0   -3.2238172 -0.0017720032 
  145200   0.97402827   -3.3137453            0   -3.2350114 -0.0022904591 
  145500    0.7018221   -3.3137453            0   -3.2570147 -0.0019284406 
  145800    0.8379528   -3.3137453            0   -3.2460108 0.0033640438 
  146100   0.89111815   -3.3137453            0   -3.2417133 -0.0023138921 
  146400   0.95658613   -3.3137453            0   -3.2364213 -0.00022726775 
  146700    1.1321605   -3.3137453            0    -3.222229 -0.00011622268 
  147000    1.0606135   -3.3137453            0   -3.2280124 -0.0013058199 
  147300   0.94465793   -3.3137453            0   -3.2373855 -0.0010637155 
  147600    0.9460938   -3.3137453            0   -3.2372694 -0.00018511177 
  147900   0.99313341   -3.3137453            0    -3.233467 -0.0025496109 
  148200   0.89787912   -3.3137453            0   -3.2411668 0.00072042052 
  148500   0.87960098   -3.3137453            0   -3.2426442 -0.0047604587 
  148800    0.8473936   -3.3137453            0   -3.2452477 -0.0014319039 
  149100   0.64468149   -3.3138287            0   -3.2617169 -0.0036909607 
  149400   0.71895585   -3.3164975            0    -3.258382 0.0043660411 
  149700   0.83109821   -3.3218478            0   -3.2546674 -0.00020701151 
  150000   0.95689973   -3.3266818            0   -3.2493324 -0.0033171395 
  150300    0.8577974   -3.3281683            0   -3.2588297 0.0020110656 
  150600    1.2039059   -3.3232334            0   -3.2259177 -0.0013882676 
  150900    1.1028332   -3.3236468            0   -3.2345012 0.0020527276 
  151200    1.3210094   -3.3271344            0   -3.2203528 -0.0028855026 
  151500    1.2179742   -3.3258507            0   -3.2273978 0.0022814672 
  151800     1.012771   -3.3290039            0   -3.2471382 -0.0035154789 
  152100    1.2209159   -3.3301342            0   -3.2314435 0.0012450902 
  152400    1.2054102   -3.3307472            0   -3.2333099 0.0033733173 
  152700   0.91430208   -3.3305348            0   -3.2566287 -0.0019042715 
  153000    1.0371081   -3.3307485            0   -3.2469156 -0.0053364884 
  153300    1.2142024   -3.3293848            0   -3.2312368 0.00081289024 
  153600   0.96245669   -3.3263593            0   -3.2485607 0.0057074633 
  153900    1.0033049   -3.3273555            0    -3.246255 -0.0028163628 
  154200    1.1595703   -3.3291799            0   -3.2354479 0.0058061195 
  154500    0.9510312   -3.3302183            0   -3.2533432 0.0026341214 
  154800     1.093179   -3.3283812            0   -3.2400159 0.0036816571 
  155100    1.1439118   -3.3285999            0   -3.2361336  0.005216395 
  155400     1.285652   -3.3285947            0   -3.2246711 -0.0017342612 
  155700     1.145499   -3.3265788            0   -3.2339843 -0.0046060394 
  156000    1.3039072    -3.328254            0   -3.2228548 -0.0012354108 
  156300    1.0586184   -3.3301273            0   -3.2445556 0.00047796999 
  156600    1.1534046   -3.3303691            0   -3.2371356 0.0011717888 
  156900   0.98418751   -3.3265893            0   -3.2470342 -0.0023636275 
  157200    0.9557281    -3.325751            0   -3.2484963 -0.0030453942 
  157500   0.99489595   -3.3287386            0   -3.2483179 0.0047713944 
  157800   0.85349645   -3.3289864            0   -3.2599955 -0.0028620943 
  158100   0.71857647   -3.3289186            0   -3.2708337 0.0047618964 
  158400   0.88737375    -3.326585            0   -3.2548556 0.0010468767 
  158700   0.97165116   -3.3269681            0   -3.2484263 -0.0024986182 
  159000    1.3614811   -3.3295966            0   -3.2195436 0.0042053212 
  159300    1.1635442   -3.3292843            0   -3.2352311 0.0034959022 
  159600    1.2736553    -3.329848            0   -3.2268941 0.0019925047 
  159900    1.3622475   -3.3303603            0   -3.2202453 0.00050849097 
  160200    1.1906296   -3.3302829            0   -3.2340404 -0.0011522728 
  160500    1.1080616   -3.3304442            0   -3.2408759 0.0068861807 
  160800    1.1394606   -3.3301332            0   -3.2380268 0.0020249772 
  161100    1.0666594   -3.3287644            0   -3.2425428 0.0025818724 
  161400       1.2211   -3.3299783            0   -3.2312727 -0.001902145 
  161700   0.96745067   -3.3246306            0   -3.2464283 -0.0038606272 
  162000    1.0834963    -3.324689            0   -3.2371063 -0.00064878666 
  162300    1.0424871   -3.3264818            0    -3.242214 0.0013901005 
  162600    1.1450383   -3.3293438            0   -3.2367865 -0.0012623066 
  162900    1.1213322   -3.3298054            0   -3.2391644 -0.0010855175 
  163200    1.1017495   -3.3306607            0   -3.2416026 0.00058730941 
  163500    1.1528303   -3.3303094            0   -3.2371223 -0.0024152081 
  163800    1.0295098   -3.3271056            0   -3.2438869 -0.0024970846 
  164100    1.0937061   -3.3273884            0   -3.2389805 -0.0037564762 
  164400   0.95125724   -3.3297661            0   -3.2528728 -0.0008152095 
  164700    1.0264712   -3.3279763            0   -3.2450033 -0.0014467746 
  165000    1.1306366   -3.3285346            0   -3.2371415 0.00097468105 
  165300   0.86844401   -3.3308772            0    -3.260678 -0.0041548587 
  165600    1.0341209    -3.330165            0   -3.2465736 0.0014749738 
  165900    1.1187459   -3.3317845            0   -3.2413525 -0.0030714055 
  166200    1.0192998   -3.3288724            0    -3.246479 0.0022000491 
  166500     1.348906   -3.3319558            0   -3.2229192  0.000526743 
  166800    1.3597162   -3.3303449            0   -3.2204345 0.00037230641 
  167100    1.0010614   -3.3308384            0   -3.2499193 0.00033964636 
  167400    1.0253235   -3.3280676            0   -3.2451873 0.0028905576 
  167700   0.74195373   -3.3271948            0   -3.2672202  0.002458803 
  168000    1.0326517   -3.3309935            0   -3.2475208 0.0023676322 
  168300   0.96765698   -3.3291047            0   -3.2508858 -0.006188861 
  168600   0.97951653    -3.327108            0   -3.2479304 0.0012932994 
  168900    1.2106347   -3.3307505            0   -3.2328908 -0.0010333917 
  169200   0.92180951   -3.3233995            0   -3.2488866 -0.0011030256 
  169500   0.96775947   -3.3242215            0   -3.2459943 0.0039540414 
  169800    1.0569449   -3.3319559            0   -3.2465196 -0.0038964556 
  170100   0.79974317   -3.3301559            0     -3.26551 -0.0045677774 
  170400   0.94649037   -3.3319935            0   -3.2554855 -0.0025078587 
  170700    1.1852225   -3.3332873            0   -3.2374818 0.00023177227 
  171000    1.2635595   -3.3350479            0   -3.2329102 0.0014078064 
  171300   0.89636146   -3.3353224            0   -3.2628665 -0.0029776025 
  171600   0.78834865   -3.3293074            0   -3.2655825 -0.0029212748 
  171900    1.0413505   -3.3293623            0   -3.2451864 0.0032514492 
  172200   0.78165787   -3.3334424            0   -3.2702583 0.0013899533 
  172500    1.0098445      -3.3346            0   -3.2529709 0.0025069995 
  172800    1.0663893   -3.3328101            0   -3.2466103 0.0018916542 
  173100    1.2448277   -3.3359142            0   -3.2352906 -0.0011039056 
  173400    1.2342579   -3.3367419            0   -3.2369727 -0.0047230445 
  173700    1.2823555    -3.337571            0    -3.233914 -0.0023125115 
  174000     1.106766   -3.3381745            0    -3.248711 0.00036698121 
  174300    1.2335043   -3.3380401            0   -3.2383318 -0.0026160302 
  174600    1.2093081   -3.3385263            0   -3.2407739 -0.0048697494 
  174900    1.0180001   -3.3378946            0   -3.2556062 -0.0019532195 
  175200    1.1314717   -3.3406433            0   -3.2491827 -0.00040801669 
  175500    1.0045858    -3.337692            0    -3.256488 -0.0024301794 
  175800   0.85679702   -3.3415449            0   -3.2722872 0.0024595835 
  176100    1.0183127   -3.3402591            0   -3.2579455 -0.0086852057 
  176400   0.95356089   -3.3425351            0   -3.2654556 0.00045473773 
  176700    1.0569176   -3.3417659            0   -3.2563317 0.00098152932 
  177000    1.0109169   -3.3391421            0   -3.2574263 -0.00033612877 
  177300   0.93477887   -3.3396593            0   -3.2640981 0.00098226939 
  177600   0.91314683   -3.3459958            0   -3.2721831  0.002660113 
  177900   0.92687413   -3.3507232            0   -3.2758009 -0.0022501815 
  178200   0.95236951   -3.3508748            0   -3.2738916  -0.00131351 
  178500   0.89181917   -3.3506493            0   -3.2785606 -0.0027069773 
  178800   0.92787944   -3.3519493            0   -3.2769457 -0.004527182 
  179100    0.8043162   -3.3517422            0   -3.2867266 0.00087002204 
  179400    0.9526374   -3.3485073            0   -3.2715025 -0.001251849 
  179700    1.1429033   -3.3523122            0   -3.2599275 0.0044062596 
  180000    1.1948248   -3.3530832            0   -3.2565015 0.0016801557 
  180300    1.0802887   -3.3597938            0   -3.2724705 -0.0027717992 
  180600    1.2156916   -3.3612563            0   -3.2629879 0.0046871278 
  180900     1.197357   -3.3718149            0   -3.2750286 0.0024161441 
  181200    1.0451838   -3.3758305            0   -3.2913448 0.0021761209 
  181500    1.1797708   -3.3834861            0   -3.2881213 -0.0031816834 
  181800    1.2198287   -3.4050558            0    -3.306453 -0.0034839343 
  182100    1.4551811   -3.4109588            0   -3.2933317 -0.00087404877 
  182400    1.4778552   -3.4386785            0   -3.3192185 -0.0039554364 
  182700    1.6237217   -3.4775921            0   -3.3463413 0.00023417635 
  183000    1.8935988   -3.5494975            0   -3.3964316 0.00056187504 
  183300    1.7124122   -3.5809364            0   -3.4425164 -0.003536605 
  183600    1.4364904   -3.5638739            0   -3.4477576 0.0021288929 
  183900    1.5781595    -3.594176            0   -3.4666081 0.00016631107 
  184200    1.0949726   -3.5762121            0   -3.4877018 -0.00020017133 
  184500    1.1813074   -3.6074111            0   -3.5119221 0.0017083123 
  184800   0.92115218   -3.5942418            0    -3.519782 -0.0022330915 
  185100    1.1550508   -3.6086493            0   -3.5152827 0.00036402114 
  185400   0.99087308   -3.6116121            0   -3.5315165 0.0040174079 
  185700   0.89117417    -3.596457            0   -3.5244205 -0.00080434966 
  186000    1.1143582   -3.6138644            0   -3.5237871 0.0033906841 
  186300    1.2276535    -3.610027            0   -3.5107916 -0.0008891915 
  186600    1.0028219    -3.609252            0   -3.5281905 0.0013756032 
  186900    1.0406219   -3.6126589            0    -3.528542 0.00099788028 
  187200    1.0716956   -3.6098409            0   -3.5232122 0.0011009647 
  187500    1.0629266   -3.6091675            0   -3.5232476 0.0013227986 
  187800    1.2229012   -3.6147567            0   -3.5159055 -0.0022844618 
  188100    1.0846347   -3.6152332            0   -3.5275586 0.00033058972 
  188400    1.0668237   -3.6146857            0   -3.5284508 -0.0018796602 
  188700    1.2164743   -3.6118325            0   -3.5135009 -0.0013563796 
  189000    1.2326587    -3.610798            0   -3.5111581 0.0036886381 
  189300    1.0654734   -3.6128036            0   -3.5266778 -0.0014654954 
  189600   0.88122829   -3.6111597            0   -3.5399271 0.0025103143 
  189900   0.97098208   -3.6118857            0    -3.533398 -0.0026536619 
  190200   0.83829964   -3.6131162            0   -3.5453536 -0.008972844 
  190500    1.2004259   -3.6129237            0   -3.5158893 7.8318377e-05 
  190800    1.1643793   -3.6151447            0   -3.5210241 0.0001759507 
  191100   0.94857768    -3.614278            0   -3.5376013 -0.00040054061 
  191400   0.69849313   -3.6120935            0    -3.555632 -0.0029589153 
  191700   0.94943263   -3.6142127            0   -3.5374669 0.0010034439 
  192000   0.98837653   -3.6143581            0   -3.5344643 0.0034035648 
  192300   0.82237643   -3.6136162            0   -3.5471407 -0.00031486434 
  192600   0.86473557   -3.6143007            0   -3.5444012 0.0019006463 
  192900   0.91573784   -3.6130202            0    -3.538998 -0.0017907235 
  193200   0.99844594   -3.6118656            0   -3.5311579 -0.0003279456 
  193500   0.81581177   -3.6134677            0   -3.5475229 -0.0033935711 
  193800   0.97923777   -3.6117443            0   -3.5325893 0.0022553378 
  194100   0.90995997    -3.610264            0   -3.5367089 -0.0012694418 
  194400    1.0698328   -3.6088549            0   -3.5223767 0.0050144813 
  194700    1.1210889   -3.6097622            0   -3.5191408 0.00099209062 
  195000    1.3963064   -3.6097724            0   -3.4969043 0.0014755786 
  195300    1.2306084   -3.6063927            0   -3.5069185 -0.0039455142 
  195600    1.2914149   -3.6023635            0   -3.4979742 -0.0028318005 
  195900    1.2273974   -3.6042071            0   -3.5049925 0.00016087953 
  196200    1.1004851   -3.6058037            0   -3.5168479 0.0013680972 
  196500    1.2875995   -3.6084969            0   -3.5044159 -0.00012819105 
  196800    1.1791807   -3.6080663            0   -3.5127492  0.001834532 
  197100    1.0895723   -3.6082135            0   -3.5201397 0.0028334603 
  197400    1.0103164   -3.6061825            0   -3.5245152 -0.0023378285 
  197700    1.2053816   -3.5994031            0   -3.5019681 -0.0019118572 
  198000    1.0583387   -3.6059693            0   -3.5204203 0.0032349518 
  198300    1.0944331    -3.604953            0   -3.5164864 -0.0020480099 
  198600     1.070465   -3.6104491            0   -3.5239199 -0.0006167233 
  198900     1.177501   -3.6153632            0   -3.5201819 -0.0025312663 
  199200   0.96151392    -3.609692            0   -3.5319696 0.00021992862 
  199500    1.0951043   -3.6078293            0   -3.5193084 0.00089026872 
  199800    1.2244604   -3.6056591            0   -3.5066819 -0.0018676407 
  200100    1.0772829   -3.6035249            0   -3.5164445 -0.00066623685 
  200400    1.0596803    -3.609877            0   -3.5242195 0.0021553096 
  200700    1.3108042   -3.6112052            0   -3.5052486 -0.0011356957 
  201000    1.2799709   -3.6067319            0   -3.5032676 -0.0010651303 
  201300    1.1105035   -3.6031727            0    -3.513407 0.0011341035 
  201600    1.0164651   -3.6082006            0   -3.5260364 0.00020462248 
  201900    1.0520518   -3.6099513            0   -3.5249105 -0.0032973317 
  202200   0.94562882   -3.6005775            0   -3.5241392 -0.0018150549 
  202500    1.1967551   -3.6059859            0   -3.5092482 -0.0022486787 
  202800    1.1778795    -3.605213            0    -3.510001 0.0027464208 
  203100    1.1729512   -3.6115602            0   -3.5167467 0.0027097054 
  203400   0.97571914    -3.609356            0   -3.5304854 0.0042398985 
  203700   0.86129251   -3.6147115            0   -3.5450903 0.0014410077 
  204000     1.032386   -3.6156463            0   -3.5321951 0.0022489157 
  204300   0.94294844   -3.6145286            0   -3.5383069 -0.00050822981 
  204600   0.85694392   -3.6104565            0   -3.5411869 -0.0012324515 
  204900   0.86741805   -3.6112799            0   -3.5411636 0.0023676109 
  205200   0.77461205   -3.6121169            0   -3.5495025 0.00062229588 
  205500     0.853525    -3.609836            0   -3.5408427 0.0017315982 
  205800   0.77002983   -3.6110497            0   -3.5488056 -0.0014947723 
  206100   0.71132495   -3.6109182            0   -3.5534194 -0.0049461527 
  206400   0.81526903    -3.614823            0   -3.5489221 -0.0033343369 
  206700    1.1524531   -3.6138522            0   -3.5206956 0.0014547499 
  207000   0.83667854   -3.6131003            0   -3.5454687 1.7861283e-05 
  207300   0.84836187   -3.6136145            0   -3.5450386 0.0008986326 
  207600   0.96957068   -3.6090566            0   -3.5306829 -0.00094683679 
  207900    1.0629747   -3.6132288            0    -3.527305 -0.002404639 
  208200    1.1046131   -3.6113255            0    -3.522036 0.0011587558 
  208500    1.0741354   -3.6093201            0   -3.5224942 -0.00099197924 
  208800   0.98929588   -3.6067913            0   -3.5268232 -0.00059155082 
  209100   0.97163697    -3.614014            0   -3.5354734 0.0027613406 
  209400    1.0473482   -3.6096055            0   -3.5249449 -0.0013368494 
  209700    0.8386836   -3.6039957            0   -3.5362021 0.0034291784 
  210000   0.97856418   -3.6045171            0   -3.5254165 -0.00014961707 
  210300   0.95998638   -3.6068257            0   -3.5292268 -0.0018049395 
  210600      1.16584   -3.6072123            0   -3.5129735 0.0044927351 
  210900    1.1704019   -3.6011042            0   -3.5064967 -0.0015714672 
  211200    1.2044073   -3.6028659            0   -3.5055096 0.0038423781 
  211500    1.3918661   -3.6084259            0   -3.4959167 -0.0063963255 
  211800    1.2953862   -3.6100006            0   -3.5052903 0.0017426691 
  212100    1.1943656   -3.6088877            0   -3.5123432 -0.0029457972 
  212400    1.3123727   -3.6059701            0   -3.4998866 0.0026592232 
  212700    1.2996929   -3.6071803            0   -3.5021218 -0.00098209212 
  213000    1.3622308   -3.6067146            0   -3.4966009 0.0054884758 
  213300    1.2262991   -3.6096832            0   -3.5105573 0.0010611703 
  213600    1.3102035   -3.6086082            0   -3.5027001  0.001893951 
  213900     1.160833   -3.6102083            0   -3.5163743 0.0015907265 
  214200    1.0198587    -3.606994            0   -3.5245554 -0.0008273939 
  214500   0.92021678   -3.6090682            0    -3.534684 0.0013957754 
  214800    1.0174644   -3.6096918            0   -3.5274467 -0.00072479104 
  215100    1.0120171   -3.6154016            0   -3.5335969 0.0034364052 
  215400     1.188503   -3.6138713            0   -3.5178006 0.0035693755 
  215700    1.0760252   -3.6091621            0   -3.5221834 0.0046007924 
  216000    1.0395498   -3.6090818            0   -3.5250515 0.0041156257 
  216300    1.0678861   -3.6145125            0   -3.5281917 -0.0008394907 
  216600    1.2843683   -3.6108875            0   -3.5070677 0.0018545828 
  216900     1.002136   -3.6115248            0   -3.5305188 -0.00052278871 
  217200   0.89872996   -3.6135081            0   -3.5408607 -0.00034076039 
  217500   0.80688272   -3.6151794            0   -3.5499564 -0.00080666468 
  217800    0.9519258   -3.6150782            0   -3.5381308 0.00081338834 
  218100   0.79366039    -3.612215            0   -3.5480608 -0.0016343938 
  218400   0.66176488   -3.6117989            0   -3.5583062 0.0015344536 
  218700   0.97531463   -3.6116886            0   -3.5328506 -0.0034119541 
  219000    1.1319986   -3.6132384            0   -3.5217352 -0.0012734038 
  219300    1.1455877   -3.6137522            0   -3.5211505 0.0011415272 
  219600   0.98894977   -3.6212454            0   -3.5413053 0.0018773511 
  219900   0.94299392   -3.6173587            0   -3.5411334 -9.4191953e-05 
  220200   0.91713894   -3.6187661            0   -3.5446307 -0.0032811513 
  220500    1.1036937   -3.6202417            0   -3.5310265 -0.0036924423 
  220800    1.1311798    -3.624601            0    -3.533164 -0.0031508209 
  221100   0.92578781   -3.6219379            0   -3.5471033 0.0013942073 
  221400   0.95053677   -3.6226532            0   -3.5458181 -0.003306454 
  221700    0.9934551    -3.625315            0   -3.5450107 -0.0023724672 
  222000    1.0205103   -3.6104162            0    -3.527925 0.0010708704 
  222300    1.1194936   -3.6105797            0   -3.5200873 0.0006526849 
  222600   0.91886845   -3.6139476            0   -3.5396724 -0.0016635364 
  222900     1.044386   -3.6160334            0   -3.5316122 0.0011058693 
  223200   0.84892592   -3.6154196            0   -3.5467981 0.00051842722 
  223500   0.95671925   -3.6216311            0   -3.5442963 0.0032942726 
  223800    1.0158002   -3.6197256            0    -3.537615 -0.0025788062 
  224100   0.99445684   -3.6207185            0   -3.5403333 -0.0035871492 
  224400    1.2512889   -3.6266971            0   -3.5255512  0.004991491 
  224700    0.8325184   -3.6180803            0    -3.550785 0.0029904597 
  225000    1.0047687   -3.6224799            0   -3.5412611 1.9710708e-06 
  225300    1.0161869   -3.6221316            0   -3.5399898  0.003555793 
  225600   0.84020142   -3.6212643            0    -3.553348 -0.0020109223 
  225900   0.89842215   -3.6144945            0    -3.541872 0.0024399876 
  226200     1.004514   -3.6175997            0   -3.5364015 0.0042152161 
  226500   0.94560112   -3.6244679            0   -3.5480318 -0.0035290344 
  226800    1.1643459   -3.6230133            0   -3.5288953 -0.0022827667 
  227100       1.1136   -3.6249299            0   -3.5349139  0.000400346 
  227400    1.2296994   -3.6256074            0   -3.5262067 -0.0027459742 
  227700    1.1169948   -3.6241989            0   -3.5339085 -0.0061606811 
  228000    1.1741732   -3.6221366            0   -3.5272242 0.0017427328 
  228300    1.1624368   -3.6243581            0   -3.5303944 0.0011500351 
  228600    1.0437991   -3.6247282            0   -3.5403544 -0.0063086651 
  228900   0.97559747   -3.6251694            0   -3.5463087 0.0070096114 
  229200    1.0872257   -3.6187404            0   -3.5308563 -0.0047598055 
  229500   0.82375838   -3.6212244            0   -3.5546372 0.0035388502 
  229800    1.0023485   -3.6233729            0   -3.5423497 -0.0028423184 
  230100    1.0139196   -3.6236224            0   -3.5416639 -0.0015071854 
  230400   0.88558477   -3.6249203            0   -3.5533355 0.0037865775 
  230700   0.82876021   -3.6260348            0   -3.5590434 0.0047088614 
  231000   0.94168113   -3.6253858            0   -3.5492665 -0.0024455265 
  231300   0.84763298   -3.6246201            0   -3.5561031 -0.00071896446 
  231600   0.99003206   -3.6189609            0   -3.5389333 -0.0015315717 
  231900    1.0472293   -3.6206772            0   -3.5360262 0.00013190492 
  232200     1.001259   -3.6211394            0   -3.5402043 -0.0017906762 
  232500   0.99713125   -3.6237763            0   -3.5431749 0.0037930513 
  232800    1.1344867   -3.6260131            0   -3.5343088 -0.00071245156 
  233100   0.94696525   -3.6233577            0   -3.5468113 -0.0034562863 
  233400   0.88364715   -3.6201903            0   -3.5487622 0.0010181158 
  233700    1.0223612   -3.6226894            0   -3.5400485  0.001828277 
  234000   0.90044315   -3.6146438            0    -3.541858 0.0036653136 
  234300    0.9669686   -3.6181854            0   -3.5400222 -0.00060765203 
  234600    1.0437871    -3.616054            0   -3.5316812 0.0013267288 
  234900   0.93056869   -3.6145508            0   -3.5393298 -0.0031272425 
  235200   0.98197458   -3.6198589            0   -3.5404826  0.002367529 
  235500   0.89529678   -3.6215342            0   -3.5491644 0.0037180458 
  235800    1.0482734   -3.6211061            0   -3.5363707 -0.0045497892 
  236100    1.1352495   -3.6160501            0   -3.5242841 -0.0032685783 
  236400    1.0626276   -3.6208894            0   -3.5349936 -0.0011759258 
  236700    1.0128044   -3.6186024            0    -3.536734  -0.00284808 
  237000    1.0534643   -3.6236246            0   -3.5384696 0.0013499631 
  237300    1.0110801   -3.6118447            0   -3.5301158 -0.00017049535 
  237600    1.0579574   -3.6221147            0   -3.5365965 -0.0026317347 
  237900     1.249361   -3.6221743            0   -3.5211843 0.00097248366 
  238200    1.0749252   -3.6170754            0   -3.5301856 -0.0021460149 
  238500    1.0801009   -3.6197276            0   -3.5324194 -0.0046318849 
  238800    1.2156888   -3.6215363            0   -3.5232681 -0.0037959975 
  239100    1.2032966    -3.621339            0   -3.5240725 0.00084898501 
  239400    1.0463878   -3.6241293            0   -3.5395462 0.0022444919 
  239700   0.85407139   -3.6234837            0   -3.5544463 -0.0030672905 
  240000   0.71661068   -3.6185328            0   -3.5606068 0.0038927769 
  240300   0.87392954   -3.6189048            0   -3.5482621 0.0018120212 
  240600   0.90461636    -3.619241            0   -3.5461178 -0.0012629311 
  240900   0.91131561   -3.6190998            0   -3.5454351 -0.00025789825 
  241200    1.0040887   -3.6223242            0   -3.5411604 -0.0011757328 
  241500     1.130199    -3.624135            0   -3.5327773 0.0017547016 
  241800   0.95338324   -3.6221206            0   -3.5450555 -0.0004178429 
  242100   0.99633267   -3.6237452            0   -3.5432083  0.001026342 
  242400    1.0523814   -3.6141711            0   -3.5291036 0.0011813857 
  242700    1.0105574    -3.625091            0   -3.5434043 -0.00015145978 
  243000   0.95379111    -3.623657            0   -3.5465589 -0.0013795254 
  243300    1.1324888   -3.6222161            0   -3.5306732 0.0020576651 
  243600    1.2350739    -3.622398            0   -3.5225628 0.0029696482 
  243900    1.2457892    -3.624414            0   -3.5237127 -0.0013023292 
  244200    1.0396843   -3.6223669            0   -3.5383258 0.00012463837 
  244500   0.88643352   -3.6206471            0   -3.5489937 -0.0014467857 
  244800    1.1410992    -3.616731            0   -3.5244921 -0.00097230189 
  245100    1.0514751   -3.6151515            0   -3.5301573 0.0021886152 
  245400    1.0217501   -3.6230638            0   -3.5404723 0.0001745038 
  245700   0.90193511    -3.617432            0   -3.5445256 -0.0035544912 
  246000    1.0719217   -3.6247509            0   -3.5381039 0.0010052362 
  246300    1.0406274   -3.6241928            0   -3.5400754 -0.0015747738 
  246600    1.0972842   -3.6234707            0   -3.5347736   0.00328189 
  246900    1.0441785   -3.6226632            0   -3.5382588 0.0043890325 
  247200   0.95533206   -3.6221829            0   -3.5449602 -0.0035620677 
  247500   0.81883331   -3.6187895            0   -3.5526005 -0.0015264829 
  247800   0.77874958   -3.6171034            0   -3.5541544 -0.0054191846 
  248100    1.0821561   -3.6165606            0   -3.5290864 0.0043178743 
  248400     1.188388     -3.62097            0   -3.5249086 -0.0012940923 
  248700     0.876325   -3.6205781            0   -3.5497419 -0.00023853059 
  249000   0.98659624   -3.6182701            0   -3.5385202 0.0014645178 
  249300    1.1084993   -3.6231385            0   -3.5335348 0.00047878297 
  249600   0.98051005   -3.6211558            0   -3.5418979 -0.0041955216 
  249900   0.94394765   -3.6215476            0   -3.5452451 -0.00046214548 
  250200   0.83847714   -3.6207129            0   -3.5529359 -0.00010868629 
  250500   0.78804246   -3.6214867            0   -3.5577866 -0.0047876221 
  250800    1.0027273     -3.61925            0   -3.5381962 0.0017119739 
  251100    1.0118141   -3.6210329            0   -3.5392446 -0.0018650238 
  251400   0.88241489   -3.6207388            0   -3.5494103 -0.00091946284 
  251700   0.99708689   -3.6201573            0   -3.5395594 0.0022587403 
  252000   0.93166898   -3.6177218            0   -3.5424119 9.2567437e-05 
  252300   0.99882294   -3.6185042            0    -3.537766 0.0044183611 
  252600     1.109279   -3.6185184            0   -3.5288516 -0.00060685996 
  252900    1.0017158   -3.6206228            0   -3.5396508 0.00062568792 
  253200    1.0075016   -3.6230644            0   -3.5416246 -0.0020763043 
  253500      1.06784   -3.6206719            0   -3.5343548 -0.0019811302 
  253800   0.91812286   -3.6168021            0   -3.5425872 0.0012678712 
  254100    0.9531671   -3.6174937            0    -3.540446 0.0031659412 
  254400   0.89145983   -3.6169174            0   -3.5448577 -0.0028132931 
  254700    1.0391053    -3.614844            0   -3.5308496 -0.0023246099 
  255000   0.87287401    -3.611993            0   -3.5414357 0.0018960396 
  255300   0.99464537    -3.614108            0   -3.5337075  0.002902901 
  255600   0.96673619   -3.6186101            0   -3.5404656 -0.0012058665 
  255900   0.92492834   -3.6186987            0   -3.5439336 0.00097825322 
  256200    1.0432714   -3.6187186            0   -3.5343875 -0.0036195769 
  256500    1.1043236   -3.6220482            0    -3.532782 -0.0001434934 
  256800    1.0408702   -3.6208246            0   -3.5366876 -0.0063263356 
  257100   0.88338891   -3.6183243            0    -3.546917 0.0024550986 
  257400     1.078426   -3.6196735            0   -3.5325007 0.0029374328 
  257700    0.9525035   -3.6185206            0   -3.5415266 0.0035011473 
  258000    1.0943112   -3.6190803            0   -3.5306235 -0.0028379067 
  258300    1.4331001   -3.6204242            0   -3.5045819 -0.0027485076 
  258600    1.4855399   -3.6183196            0   -3.4982385 -0.0040338677 
  258900    1.2789688   -3.6144316            0   -3.5110483 0.0003691719 
  259200    1.1414909   -3.6139905            0   -3.5217199 0.0013142762 
  259500    1.2991176   -3.6169832            0   -3.5119712 -3.4013533e-05 
  259800    1.3123712   -3.6174426            0   -3.5113593 0.0004891414 
  260100   0.95679448   -3.6170752            0   -3.5397343 0.00073019525 
  260400   0.92070372   -3.6136479            0   -3.5392244 5.6546969e-05 
  260700   0.92119433   -3.6177673            0   -3.5433041 0.00013632301 
  261000    0.8096202   -3.6189477            0   -3.5535034 -0.0020913878 
  261300    0.8921701   -3.6191398            0   -3.5470228 -0.0011292473 
  261600    0.7283857   -3.6174353            0   -3.5585575   0.00146723 
  261900   0.84246333   -3.6172271            0    -3.549128 8.6229462e-05 
  262200   0.87036668   -3.6185623            0   -3.5482077 0.0001735008 
  262500    1.0230892   -3.6174983            0   -3.5347986 0.0030355791 
  262800    1.1528674   -3.6174255            0   -3.5242353 0.00045045087 
  263100   0.99717295   -3.6179292            0   -3.5373244 0.0072036738 
  263400   0.89829115   -3.6200408            0   -3.5474289 0.0027872115 
  263700    1.1426753   -3.6165103            0    -3.524144 0.0045458162 
  264000    0.9974349   -3.6114166            0   -3.5307906 0.0043215882 
  264300   0.84995546    -3.611849            0   -3.5431442 0.0026677031 
  264600   0.93453233   -3.6147896            0   -3.5392483 0.0012680747 
  264900    1.0874291   -3.6185191            0   -3.5306186 -0.0036094222 
  265200   0.97486354   -3.6180498            0   -3.5392484 -0.0016942428 
  265500   0.82705601   -3.6182438            0   -3.5513901 -0.0011272799 
  265800   0.80877561   -3.6153275            0   -3.5499515  0.002948934 
  266100     0.891829   -3.6213917            0   -3.5493022  0.002957444 
  266400   0.90217929   -3.6187849            0   -3.5458588 -0.00081603569 
  266700   0.79333935    -3.617693            0   -3.5535648 -0.00033187912 
  267000    1.1322976   -3.6182258            0   -3.5266984  0.001360088 
  267300    1.2402759   -3.6213744            0   -3.5211187  0.002191886 
  267600    1.1701554   -3.6201592            0   -3.5255717  0.005157062 
  267900    1.0023912    -3.616719            0   -3.5356924 0.00029602753 
  268200    1.1266437   -3.6204422            0   -3.5293718 0.0031612126 
  268500    1.1684253   -3.6196454            0   -3.5251977 -0.0014838856 
  268800    1.2304343   -3.6163847            0   -3.5169246 0.0048195174 
  269100    1.3018902   -3.6188672            0   -3.5136311 0.0041214807 
  269400    1.6454662   -3.6181018            0   -3.4850932 -0.0019972895 
  269700    1.3169073   -3.6190407            0   -3.5125907 -0.002091665 
  270000    1.2544286    -3.614749            0   -3.5133493 0.0020391995 
  270300    1.0905503   -3.6198694            0   -3.5317165 0.0017115064 
  270600    1.0744204   -3.6134663            0   -3.5266173 -0.0017661014 
  270900   0.88461108   -3.6129918            0   -3.5414857 0.0016843604 
  271200   0.80100387   -3.6163401            0   -3.5515923 0.0021439908 
  271500   0.94016816   -3.6167909            0    -3.540794 0.00063693646 
  271800   0.90328201    -3.615015            0   -3.5419997 -0.00052706896 
  272100     1.232024   -3.6175384            0   -3.5179498 0.0016424294 
  272400    0.9416875   -3.6136144            0   -3.5374947 0.00076770671 
  272700    0.8294514   -3.6214144            0   -3.5543671 0.00023653567 
  273000   0.80787262   -3.6147847            0   -3.5494816 -0.0040697048 
  273300    1.0203798   -3.6157212            0   -3.5332405 -0.0025004707 
  273600    1.0286869   -3.6140239            0   -3.5308717 0.0014547336 
  273900    1.0742995    -3.618765            0   -3.5319258 -0.0018070698 
  274200    1.0708744   -3.6195142            0   -3.5329518    0.0028588 
  274500    1.1082057   -3.6179246            0   -3.5283446 -0.00013950891 
  274800    1.1865713   -3.6172433            0   -3.5213287 0.0015242799 
  275100    1.2503875   -3.6156858            0   -3.5146128 0.0021669267 
  275400    1.0687821   -3.6167992            0    -3.530406 0.0034387977 
  275700    1.0500734   -3.6125656            0   -3.5276847 -0.0013648576 
  276000   0.91953153   -3.6143304            0   -3.5400016 0.0032025577 
  276300   0.95879732   -3.6115606            0   -3.5340579 -0.001043884 
  276600    1.1311834   -3.6125852            0   -3.5211479 -0.0020180048 
  276900    0.9309319   -3.6074539            0   -3.5322035 0.0013688904 
  277200    1.0111982   -3.6108887            0   -3.5291502 0.0010601317 
  277500    1.0126301   -3.6130265            0   -3.5311722 -0.0012908302 
  277800   0.86933808   -3.6140356            0   -3.5437641 -0.0006828685 
  278100   0.88514288   -3.6180095            0   -3.5464605 -0.002172419 
  278400      1.03566   -3.6090236            0   -3.5253078 0.00060524822 
  278700    1.1941287   -3.6109338            0   -3.5144084 0.0013797871 
  279000    1.1088041   -3.6177927            0   -3.5281643 -0.00033338376 
  279300    1.0993451   -3.6178963            0   -3.5290326    -0.001995 
  279600    1.0019602   -3.6181363            0   -3.5371445 -0.0012315503 
  279900    1.0717238   -3.6208001            0   -3.5341691 0.00045088607 
  280200    1.1203048   -3.6212973            0   -3.5307393 0.0016396723 
  280500    1.4153505   -3.6191259            0   -3.5047184 -0.0033222908 
  280800    1.2138924    -3.617766            0    -3.519643 -0.0011056548 
  281100   0.85324567   -3.6155154            0   -3.5465447  0.003387704 
  281400    1.2340217   -3.6199107            0   -3.5201607 0.00031142259 
  281700    1.1967483   -3.6155386            0   -3.5188015 0.0014921286 
  282000    1.2957388   -3.6202019            0    -3.515463 -0.00065681719 
  282300   0.95094445   -3.6144675            0   -3.5375995 -0.00099898724 
  282600   0.94841157   -3.6144746            0   -3.5378113 0.0068952489 
  282900    1.1392757   -3.6150992            0   -3.5230078 -0.0029197152 
  283200    1.1985211   -3.6151584            0    -3.518278 0.0093178791 
  283500    1.2523171   -3.6114438            0   -3.5102148 -0.0037235422 
  283800     1.162068   -3.6156181            0   -3.5216842 0.0058516229 
  284100    1.1183002   -3.6124726            0   -3.5220767 -0.0075049615 
  284400    1.0527732   -3.6126444            0   -3.5275453 -0.00010305761 
  284700    1.0722923   -3.6086719            0    -3.521995 0.0034996204 
  285000    0.9394792   -3.6142767            0   -3.5383354 0.00016754588 
  285300    1.0601063   -3.6138617            0   -3.5281697 0.0060401368 
  285600    1.0772828   -3.6106876            0   -3.5236072 0.0061422846 
  285900    1.0563631    -3.608542            0   -3.5231526 0.0014158413 
  286200   0.93319048   -3.6116345            0   -3.5362016 0.0010432325 
  286500    1.0526219   -3.6077442            0   -3.5226573 -0.002912528 
  286800    0.9716042   -3.6087727            0   -3.5302347 -0.001210021 
  287100    1.1411384    -3.606697            0    -3.514455 0.0030091682 
  287400    1.2299397   -3.6070231            0    -3.507603 0.0014457039 
  287700    1.1312419    -3.602861            0   -3.5114189 0.0072712703 
  288000    1.0917095    -3.602006            0   -3.5137595 -0.005405838 
  288300    1.3491707   -3.6033231            0   -3.4942651 0.0034943514 
  288600    1.2625871   -3.6022591            0   -3.5001999 -0.001026392 
  288900    1.2331688   -3.6003122            0   -3.5006311 0.0022557636 
  289200    1.0804935   -3.5979774            0   -3.5106375 0.00077464786 
  289500    1.0846247   -3.5988957            0   -3.5112218 -0.00056364549 
  289800   0.95954031   -3.5999291            0   -3.5223663 0.0020925498 
  290100    1.0700219   -3.5985014            0    -3.512008 -0.00050162416 
  290400     1.161419   -3.6002435            0   -3.5063621 -0.002802799 
  290700    1.0310653   -3.6017748            0   -3.5184303 -0.0015580109 
  291000   0.98423528   -3.6021308            0   -3.5225718 0.0020787836 
  291300   0.83357677   -3.6026432            0   -3.5352624 0.0007959783 
  291600   0.93431349   -3.6033422            0   -3.5278185 0.0026547575 
  291900   0.93582201   -3.5989312            0   -3.5232856 -0.00046131003 
  292200    1.0014064    -3.603998            0   -3.5230509 -0.0010417595 
  292500    1.0386568   -3.6015712            0   -3.5176131 0.00041814452 
  292800   0.73136983    -3.592309            0     -3.53319 -0.0023062923 
  293100   0.85887849   -3.6019196            0   -3.5324936 0.0018774045 
  293400   0.92939561   -3.6023685            0   -3.5272424 0.0042943864 
  293700   0.85676344   -3.5928623            0   -3.5236072 0.0026737601 
  294000   0.89985106   -3.5987056            0   -3.5259676 -0.0037084408 
  294300   0.85129579   -3.6035357            0   -3.5347226 0.0013235823 
  294600   0.75658314   -3.5968047            0   -3.5356476 -0.0013325895 
  294900   0.90195608   -3.6032553            0   -3.5303471 0.0023574929 
  295200    1.0711612   -3.6034828            0   -3.5168973  0.004582579 
  295500   0.95413995    -3.603064            0   -3.5259376 0.0024031328 
  295800   0.91136362   -3.6024803            0   -3.5288117 3.9624709e-06 
  296100    1.1042031   -3.6018515            0   -3.5125951 0.0014989149 
  296400    1.2137732     -3.59829            0   -3.5001766  0.003819665 
  296700    1.2350275   -3.6016724            0   -3.5018411 -0.00088551279 
  297000     1.240836   -3.6024528            0   -3.5021519 -0.00063070762 
  297300    1.3156474   -3.6016081            0     -3.49526 0.00098985849 
  297600    1.3113407   -3.6016597            0   -3.4956597 0.0011050675 
  297900    1.0251995   -3.6009164            0   -3.5180461 0.0026074898 
  298200   0.97987044   -3.6022462            0     -3.52304 0.00023891444 
  298500   0.98786821   -3.6027059            0   -3.5228532 0.0010181922 
  298800    0.8137441   -3.6014744            0   -3.5356968 0.0015750331 
  299100   0.81772007   -3.6030269            0   -3.5369278 -0.0024352423 
  299400    1.0091636   -3.6046706            0   -3.5230966 0.0028243182 
  299700    1.2330029   -3.6045294            0   -3.5048617 0.0019091654 
  300000    1.2515597   -3.6022079            0   -3.5010401 -0.0046461381 
  300300    1.1485513   -3.5998351            0   -3.5069938 0.0020395353 
  300600    1.2792869   -3.6020378            0   -3.4986288 -0.0014127615 
  300900    1.1911174   -3.6014409            0   -3.5051589 -0.00061560437 
  301200    1.2467132   -3.6030628            0   -3.5022868 0.00056852463 
  301500    1.2530625    -3.604542            0   -3.5032528 0.0033345274 
  301800     1.091195   -3.6036596            0   -3.5154546 0.0010274431 
  302100   0.85493497   -3.6033664            0   -3.5342592 -1.891269e-05 
  302400   0.82639014   -3.6012735            0   -3.5344737 0.0046301053 
  302700    1.0903491   -3.6029824            0   -3.5148458 0.00036729664 
  303000     1.294997   -3.6015445            0   -3.4968656 0.0017719501 
  303300    1.0541113   -3.6024733            0    -3.517266 -0.0052113548 
  303600   0.97149854    -3.602696            0   -3.5241666 -0.0037560498 
  303900    1.0901189   -3.5990675            0   -3.5109496 -0.0030668333 
  304200   0.99828711   -3.6012471            0   -3.5205522 -0.00032632891 
  304500   0.99691897   -3.5943387            0   -3.5137544 0.00084184254 
  304800     1.161348   -3.5986328            0   -3.5047572 0.00097296665 
  305100    1.1106249   -3.6004855            0   -3.5107099 0.00042648239 
  305400    1.2319344   -3.6021259            0   -3.5025446 0.0016222218 
  305700    1.3478074   -3.6002565            0   -3.4913087 -0.0043889944 
  306000     1.103295   -3.6030187            0   -3.5138357 0.0014489505 
  306300    1.2019859   -3.6003375            0    -3.503177  0.001627193 
  306600   0.90834233   -3.6027002            0   -3.5292759 0.0044043673 
  306900   0.95347787   -3.6048594            0   -3.5277867 -0.005051529 
  307200   0.96886689   -3.6038652            0   -3.5255485 0.0025836985 
  307500   0.95924559   -3.6030362            0   -3.5254972 0.0027612688 
  307800   0.89102621   -3.6023802            0   -3.5303556 0.0025788825 
[...]
  425700   0.92274561   -3.6987603            0   -3.6241717 0.0025587558 
  426000    1.1593846   -3.6955626            0   -3.6018457 -0.0012203319 
  426300   0.89109843   -3.6920612            0   -3.6200308 0.0040524318 
  426600    1.0551461   -3.7064945            0   -3.6212036 0.00040070546 
  426900   0.98530911   -3.7010756            0   -3.6214298 0.0053873035 
  427200    1.1317111   -3.6967373            0   -3.6052574 0.00077690812 
  427500   0.81114654   -3.6994837            0    -3.633916 -0.0032265132 
  427800    1.0910095   -3.6957233            0   -3.6075334 0.00093082479 
  428100   0.84928857   -3.6988927            0   -3.6302418 0.0010313646 
  428400   0.91566241   -3.6925725            0   -3.6185564 -0.00099728405 
  428700    1.0311061   -3.6997498            0   -3.6164021 -0.00079909604 
  429000   0.88771275    -3.691843            0   -3.6200862 0.0008034515 
  429300    1.0319724   -3.6992081            0   -3.6157904 3.4756454e-05 
  429600   0.99712036   -3.7001191            0   -3.6195186 0.0024039035 
  429900    1.2253461   -3.7040609            0   -3.6050121 -0.0032804631 
  430200    1.4863055   -3.7032006            0   -3.5830575 -0.00081582532 
  430500    1.1232111   -3.6972175            0   -3.6064247 0.0056532095 
  430800    1.0513749   -3.6925469            0   -3.6075608 -0.0034880292 
  431100    1.2205701   -3.6923733            0   -3.5937105 -0.001195172 
  431400    1.0189137   -3.6890707            0   -3.6067085 0.0016551713 
  431700    1.2243176   -3.6995125            0   -3.6005468 -0.0017562784 
  432000     1.180992   -3.7054192            0   -3.6099557 -0.0053232896 
  432300    1.1029717   -3.7024696            0   -3.6133127 0.00063732014 
  432600    1.0059179   -3.6962125            0   -3.6149008 0.0018584635 
  432900   0.81538508   -3.6949754            0   -3.6290651 -7.8958106e-05 
  433200   0.81152041   -3.6974386            0   -3.6318407 -0.00035095399 
  433500   0.72553483   -3.6964264            0    -3.637779 0.0010062638 
  433800   0.82991561   -3.6993763            0   -3.6322914 0.0035578066 
  434100   0.92973562   -3.6965549            0   -3.6214012 0.00037799634 
  434400    0.9566676   -3.6971012            0   -3.6197706 -0.0038035119 
  434700   0.95110474   -3.6902403            0   -3.6133593 -0.0019645892 
  435000   0.97196364   -3.6909736            0   -3.6124065 -0.000342229 
  435300    1.0279164   -3.6942799            0     -3.61119 -0.0034068184 
  435600   0.86177929   -3.6913221            0   -3.6216616 0.0010060983 
  435900    1.2120918   -3.6984797            0   -3.6005023 -0.00097909651 
  436200    1.2853572   -3.6877277            0    -3.583828 -0.0016969221 
  436500    1.0784775    -3.692532            0   -3.6053551 0.0020662288 
  436800   0.85134531   -3.6874109            0   -3.6185938 4.7275883e-05 
  437100   0.99083682   -3.6943638            0   -3.6142711 -0.0011789226 
  437400   0.88016262   -3.6928698            0   -3.6217234 0.0019918078 
  437700    1.1016269   -3.6990616            0   -3.6100134 0.0018951847 
  438000    1.0838727   -3.7019573            0   -3.6143443 0.00057473381 
  438300   0.87048167   -3.6994159            0    -3.629052 -0.00032565105 
  438600    1.0007697   -3.7000445            0   -3.6191489 -0.0037148506 
  438900    1.0803308   -3.6959877            0    -3.608661 -0.0025304746 
  439200    1.1552447   -3.7038003            0    -3.610418 0.00060086009 
  439500    1.0608632   -3.7015445            0   -3.6157914 0.0014199293 
  439800    1.3770487   -3.6941776            0   -3.5828662 0.00054502437 
  440100    1.2057381   -3.6863057            0   -3.5888419 -8.8329699e-05 
  440400    1.0939304   -3.6872001            0    -3.598774 0.0047144143 
  440700   0.95142414   -3.6893213            0   -3.6124145 0.0032513351 
  441000   0.92918752   -3.6960497            0   -3.6209404 0.00085091964 
  441300   0.92585969   -3.6931316            0   -3.6182913 -0.00076918403 
  441600   0.80128543   -3.6912144            0   -3.6264438 0.0004909423 
  441900   0.75076694   -3.6851772            0   -3.6244902 -0.0006793696 
  442200    1.0777629   -3.6926027            0   -3.6054835 0.0013311641 
  442500    0.9694583   -3.6911724            0   -3.6128079 0.00079706564 
  442800    1.1410176   -3.7002368            0   -3.6080046 0.0024453368 
  443100   0.95973045   -3.6964775            0   -3.6188993 -0.00088294094 
  443400   0.97236404   -3.7009128            0   -3.6223134 -0.00086635207 
  443700   0.77304008   -3.7007749            0   -3.6382875 0.0030414497 
  444000   0.76537885   -3.7012614            0   -3.6393933 -0.00088167146 
  444300   0.81749319   -3.7012091            0   -3.6351284 -0.00030655148 
  444600   0.69466719   -3.7022025            0   -3.6460503 -0.0012854996 
  444900   0.78830255   -3.7019384            0   -3.6382172 0.0016790497 
  445200   0.93625575   -3.7084452            0   -3.6327645 0.0048338427 
  445500   0.85134688   -3.7037083            0   -3.6348911 -0.0024122098 
  445800   0.82979386   -3.6979149            0   -3.6308399 -0.0010924526 
  446100    1.1246593   -3.6991933            0   -3.6082834  -0.00151749 
  446400   0.95947962   -3.6939312            0   -3.6163732 -0.00021253779 
  446700     1.045702   -3.6989322            0   -3.6144046 0.0003922985 
  447000    1.0568329   -3.7063567            0   -3.6209293  -0.00464636 
  447300    1.0542444   -3.6995046            0   -3.6142866 0.0026751765 
  447600    1.0440798   -3.6973979            0   -3.6130014 0.00081979714 
  447900     1.193059   -3.7031214            0   -3.6066825 -0.00015682157 
  448200    1.2499219   -3.6978228            0   -3.5967874 -0.0028149352 
  448500    1.1841977   -3.6966511            0   -3.6009285  0.002570371 
  448800   0.99627663   -3.6870409            0   -3.6065085 0.00074295351 
  449100   0.99800534   -3.6868014            0   -3.6061293 -0.002224312 
  449400   0.97804037   -3.6883105            0   -3.6092522 0.00037738942 
  449700    1.1787145   -3.6946703            0   -3.5993909 -0.003488074 
  450000   0.97806288   -3.6969266            0   -3.6178666 -0.0023936862 
  450300    1.0836346   -3.7024522            0   -3.6148585 0.00086514293 
  450600    1.0937356   -3.6966971            0   -3.6082868 0.00050421965 
  450900    1.0671003   -3.6998341            0   -3.6135768 -0.00068562449 
  451200    1.0351539   -3.6979592            0   -3.6142843 0.0019880486 
  451500    1.0871252   -3.7058861            0   -3.6180102 0.0019926756 
  451800    1.1314853   -3.6998065            0   -3.6083448 0.00055665521 
  452100    1.0665965   -3.7006602            0   -3.6144437 -0.001743129 
  452400     1.082592   -3.7058358            0   -3.6183263 -0.0029212095 
  452700    1.0883765   -3.7076626            0   -3.6196855 0.00016882207 
  453000    1.0493468   -3.7120075            0   -3.6271853 0.0015677966 
  453300     1.115521   -3.7050777            0   -3.6149064 0.00026236072 
  453600    1.0941476   -3.7056789            0   -3.6172353 -0.0044535141 
  453900   0.98581867   -3.7034176            0   -3.6237306 0.0047712984 
  454200   0.93379866   -3.7051062            0   -3.6296242 -0.0009134001 
  454500    1.1803583   -3.6960511            0   -3.6006388 -0.00087619008 
  454800    1.0530836   -3.6966015            0   -3.6114772 -0.0049682442 
  455100    1.2389847    -3.706599            0   -3.6064477 0.0041052807 
  455400    1.0646047   -3.6956656            0   -3.6096101 -0.001615941 
  455700   0.90164113   -3.7042432            0   -3.6313605 -0.0029828786 
  456000    1.0431407   -3.7070165            0    -3.622696 0.00039438021 
  456300    1.0260358   -3.7059456            0   -3.6230077 0.0032699197 
  456600   0.89500729   -3.7044929            0   -3.6321465 -0.0033177537 
  456900   0.80626022   -3.7008791            0   -3.6357064 0.0020672826 
  457200    1.1041582   -3.7126154            0   -3.6233626 3.7025421e-05 
  457500    1.1600135   -3.7092148            0   -3.6154471 0.0024290087 
  457800   0.79766808   -3.7116818            0   -3.6472037  0.004100708 
  458100   0.90195757   -3.7138457            0   -3.6409375  7.10966e-05 
  458400    1.0808927   -3.7163501            0    -3.628978 0.0049383428 
  458700    1.2744668   -3.7246636            0   -3.6216442 0.00095246369 
  459000    1.2307569   -3.7283319            0   -3.6288457 0.0031996261 
  459300    1.1757549   -3.7375249            0   -3.6424848 -0.00070079278 
  459600    1.1357029   -3.7476107            0    -3.655808 0.00057629733 
  459900    1.3858591   -3.7761857            0   -3.6641621 0.0011133541 
  460200    1.8190057   -3.8305041            0   -3.6834678 -0.0037523669 
  460500    1.5910929   -3.8394573            0   -3.7108439 -0.0045043365 
  460800    1.7416052    -3.897411            0   -3.7566313 -0.0042692659 
  461100   0.97034141   -3.8580217            0   -3.7795857 -0.00087997013 
  461400    1.0349525   -3.8755026            0    -3.791844 0.0010962524 
  461700    1.2096922   -3.8966396            0   -3.7988561 0.0028930606 
  462000   0.86941515   -3.8819056            0   -3.8116279 -4.1413457e-05 
  462300    1.2205732   -3.8876841            0   -3.7890211 -0.0046880205 
  462600    1.2444976   -3.8926932            0   -3.7920963 0.0038598836 
  462900     1.114663   -3.9050737            0   -3.8149718 -0.0015451057 
  463200    1.1962039   -3.9027446            0   -3.8060514 0.0020317552 
  463500   0.97588966   -3.9011409            0   -3.8222565 0.00084303529 
  463800   0.98533629   -3.9032734            0   -3.8236254 0.00024664921 
  464100    1.0769523   -3.9023983            0   -3.8153447 -0.0026377154 
  464400    1.2609229   -3.9099287            0   -3.8080041 -0.00013666891 
  464700    1.4558414    -3.919751            0   -3.8020704 -5.081183e-05 
  465000    1.2462867   -3.9028668            0   -3.8021253 -0.0017311255 
  465300    1.3042835    -3.917921            0   -3.8124914 -7.4080975e-05 
  465600    1.4210791   -3.9148817            0   -3.8000111 -0.0018896506 
  465900    1.3659041   -3.9142941            0   -3.8038835 0.0026602567 
  466200    1.3407242   -3.9130812            0    -3.804706 0.00026558168 
  466500    1.0415387   -3.8943359            0   -3.8101448 0.00043684688 
  466800    1.0252127   -3.8985762            0   -3.8157048  0.001525519 
  467100    1.0875079   -3.8964567            0   -3.8085498 0.0012501672 
  467400    1.0078225   -3.8938501            0   -3.8123844 -0.0010349043 
  467700    1.1701915   -3.8988962            0   -3.8043057 -0.0047184504 
  468000    1.0214601   -3.8983806            0   -3.8158126 -0.0020692464 
  468300    1.2603546   -3.9062494            0   -3.8043708 0.0013541579 
  468600   0.95155578   -3.8989501            0   -3.8220327 -0.0011719103 
  468900   0.81373619    -3.897179            0    -3.831402 0.0019108025 
  469200    1.0409852   -3.8907887            0   -3.8066424 0.00034045239 
  469500   0.91620921   -3.9015692            0   -3.8275089 0.00020016154 
  469800   0.93055996   -3.9035554            0   -3.8283352 -0.00084787252 
  470100     1.058635   -3.9101278            0   -3.8245548 0.0010670677 
  470400   0.98711064   -3.9066029            0   -3.8268115 0.0018638203 
  470700    1.1919643   -3.9105012            0   -3.8141508 -0.0020779751 
  471000    1.0605517   -3.9125747            0   -3.8268468 -0.00098133236 
  471300   0.90415134   -3.9050972            0   -3.8320116 0.0014236321 
  471600   0.95599661   -3.9135408            0   -3.8362644 -0.00029760906 
  471900   0.95639067   -3.9064665            0   -3.8291583 -0.0033967918 
  472200   0.93881611   -3.9022396            0    -3.826352 -0.00054812234 
  472500   0.83005476    -3.902872            0   -3.8357759 0.0051321421 
  472800    1.1069756   -3.9148522            0   -3.8253717 -0.0031600783 
  473100    1.1359862   -3.9106541            0   -3.8188286 -0.00096206749 
  473400    1.0359307   -3.9134928            0   -3.8297551 0.0039967376 
  473700     1.150895   -3.9252923            0   -3.8322617 0.0011067314 
  474000     1.026205    -3.924918            0   -3.8419665 -0.0032418689 
  474300     1.082341   -3.9205337            0   -3.8330445 -0.00098546077 
  474600    1.0969066   -3.9091253            0   -3.8204587 -0.0028661789 
  474900    1.1224055   -3.9061321            0   -3.8154043 -5.5220216e-05 
  475200    1.0129127   -3.9046642            0    -3.822787 -0.0045019968 
  475500   0.84045617   -3.8963826            0   -3.8284457 0.0029802591 
  475800   0.77037279   -3.8943497            0   -3.8320779 0.0036255555 
  476100    0.8340759    -3.899241            0   -3.8318199 -0.0017774036 
  476400    1.0100797   -3.9104869            0   -3.8288388 0.00035503942 
  476700    1.1522162   -3.8981568            0   -3.8050194 -0.0018812016 
  477000    1.3160608   -3.8985914            0   -3.7922098 0.0022165447 
  477300    1.0375966   -3.8957212            0   -3.8118488 -0.0033395365 
  477600   0.88228893   -3.9025491            0   -3.8312307 0.0053869988 
  477900    1.0458328   -3.9023704            0   -3.8178322 -0.0010883389 
  478200    1.0819708   -3.9001261            0   -3.8126668 0.0035660767 
  478500     1.071017   -3.8970458            0   -3.8104719 0.0038231875 
  478800    1.0007807   -3.9055084            0    -3.824612 0.00057916451 
  479100    0.8458813   -3.9098968            0   -3.8415214 -0.0034186901 
  479400   0.78000375   -3.9012671            0   -3.8382168 0.0017844184 
  479700   0.92929752    -3.899155            0   -3.8240367 -0.0022766535 
  480000    1.0967488   -3.9028332            0   -3.8141794 -0.0030968797 
  480300    1.0614057   -3.8988832            0   -3.8130863 -0.00059167258 
  480600    1.0163018    -3.902856            0    -3.820705 -0.0018708814 
  480900    1.1180549   -3.9004557            0   -3.8100795 -0.00055662075 
  481200     1.189466   -3.9069725            0    -3.810824 0.0049676882 
  481500    1.0364486   -3.9060049            0   -3.8222253 0.0052080374 
  481800   0.97899438   -3.8992944            0    -3.820159 -0.0027280692 
  482100    1.0894274   -3.9059805            0   -3.8179185 -0.0010233437 
  482400    1.1391956   -3.9156563            0   -3.8235713 -0.0014164521 
  482700    0.9384454   -3.9142722            0   -3.8384146 0.00087474515 
  483000   0.90924836   -3.9102903            0   -3.8367927   0.00337058 
  483300   0.99685873   -3.9063855            0   -3.8258061 -0.0011268389 
  483600   0.89926732   -3.9060956            0   -3.8334048 -0.0043795813 
  483900    1.0363387   -3.9103023            0   -3.8265315 -0.0036279407 
  484200    1.2319264   -3.9019313            0   -3.8023506 0.0016006048 
  484500    1.2118856    -3.896391            0   -3.7984303 0.0036586995 
  484800    1.0373444    -3.892353            0    -3.808501 0.0012186198 
  485100    1.0395827   -3.8965255            0   -3.8124926 0.00093673827 
  485400   0.93672255   -3.9043643            0   -3.8286459 0.00077914514 
  485700    0.8031377   -3.9070179            0   -3.8420976 0.0011135781 
  486000    1.0579979    -3.914663            0   -3.8291416 -0.0017930651 
  486300     1.102961   -3.9010268            0   -3.8118708 0.00083003118 
  486600   0.85737524   -3.9101469            0   -3.8408424 0.0029939867 
  486900    0.9277487   -3.9092576            0   -3.8342645 -0.0023392227 
  487200   0.83779441   -3.9017891            0   -3.8340674 -8.6033899e-06 
  487500   0.92404844   -3.9111754            0   -3.8364815 -0.00032712859 
  487800   0.87135044   -3.8992394            0   -3.8288052 0.0011356162 
  488100    1.0658203   -3.9019179            0   -3.8157641 0.0018681022 
  488400    0.9743811   -3.8977702            0   -3.8190078 0.0050387204 
  488700    1.1178948   -3.8987358            0   -3.8083726 -0.00086339044 
  489000   0.88518787   -3.9102963            0   -3.8387436 0.0056651013 
  489300   0.98711982   -3.9074599            0   -3.8276678 -0.00067619168 
  489600   0.96906217   -3.9172885            0    -3.838956 -0.0025790523 
  489900     1.010678   -3.9187394            0   -3.8370429 0.0054222875 
  490200      1.18044    -3.920648            0   -3.8252291 0.0044701886 
  490500    1.1023986   -3.9188425            0    -3.829732 0.0055985002 
  490800   0.86165167   -3.9056238            0   -3.8359736 0.00066870401 
  491100      1.08226   -3.9233611            0   -3.8358785 0.0023322403 
  491400    1.3524735   -3.9325671            0   -3.8232421 0.00023387287 
  491700    1.1174618   -3.9352352            0    -3.844907 0.0040436392 
  492000    1.0629336   -3.9389056            0   -3.8529851 0.0015206383 
  492300    1.0709153   -3.9451878            0   -3.8586221 0.0011981367 
  492600    1.0576707    -3.954782            0    -3.869287 0.0022378886 
  492900   0.95637111   -3.9523156            0   -3.8750089 0.0017131051 
  493200   0.98079835   -3.9574582            0    -3.878177 -0.0017859292 
  493500   0.89447186   -3.9346673            0   -3.8623642 -0.0030905918 
  493800   0.94817433   -3.9430171            0    -3.866373 -0.0026862086 
  494100   0.96745495   -3.9404104            0   -3.8622078 -0.00024350344 
  494400    1.0302479   -3.9439915            0   -3.8607131 0.00040777496 
  494700    0.9824431   -3.9416279            0   -3.8622137 0.00074786481 
  495000   0.88049562   -3.9549451            0   -3.8837718 0.0016183748 
  495300   0.96367421    -3.958546            0    -3.880649 -0.001994638 
  495600   0.95323825   -3.9660818            0   -3.8890284 0.0018091024 
  495900   0.82680129   -3.9553164            0   -3.8884833 -0.0015204567 
  496200   0.97518663     -3.96009            0   -3.8812624 0.0034811853 
  496500    1.1188774   -3.9687081            0   -3.8782655 -0.00056337536 
  496800    1.0485147   -3.9618559            0   -3.8771009 0.00062135792 
  497100   0.93758499   -3.9569837            0   -3.8811956 0.0023306378 
  497400     1.073047   -3.9552014            0   -3.8684634 0.0019798559 
  497700    1.2417556   -3.9617388            0   -3.8613635 0.0028889516 
  498000    1.0429594   -3.9528401            0   -3.8685342 -0.0010057454 
  498300    1.1276506   -3.9672698            0   -3.8761181 -0.0019206067 
  498600    1.1916435    -3.965689            0   -3.8693644 0.0015980066 
  498900    1.0331147   -3.9632348            0   -3.8797247 0.00095544643 
  499200   0.90847452   -3.9619985            0   -3.8885635 -0.0010678725 
  499500   0.98930795   -3.9713839            0   -3.8914148 2.4318615e-05 
  499800   0.88591047   -3.9601527            0   -3.8885416 -0.002571987 
  500000   0.73043384   -3.9507549            0   -3.8917115 0.00047629049 
Loop time of 47.5799 on 1 procs for 500000 steps with 600 atoms

Performance: 907945.813 tau/day, 10508.632 timesteps/s
98.2% CPU use with 1 MPI tasks x 1 OpenMP threads

MPI task timing breakdown:
Section |  min time  |  avg time  |  max time  |%varavg| %total
---------------------------------------------------------------
Pair    | 7.7312     | 7.7312     | 7.7312     |   0.0 | 16.25
Bond    | 0.035563   | 0.035563   | 0.035563   |   0.0 |  0.07
Neigh   | 0.78186    | 0.78186    | 0.78186    |   0.0 |  1.64
Comm    | 0.37488    | 0.37488    | 0.37488    |   0.0 |  0.79
Output  | 5.3365     | 5.3365     | 5.3365     |   0.0 | 11.22
Modify  | 31.862     | 31.862     | 31.862     |   0.0 | 66.97
Other   |            | 1.458      |            |       |  3.06

Nlocal:    600 ave 600 max 600 min
Histogram: 1 0 0 0 0 0 0 0 0 0
Nghost:    41 ave 41 max 41 min
Histogram: 1 0 0 0 0 0 0 0 0 0
Neighs:    1424 ave 1424 max 1424 min
Histogram: 1 0 0 0 0 0 0 0 0 0

Total # of neighbors = 1424
Ave neighs/atom = 2.37333
Ave special neighs/atom = 0
Neighbor list builds = 943
Dangerous builds = 0
Total wall time: 0:00:47
