3000
Atoms. Timestep: 0
2 14.486 11.6932 39.875
3 14.832 11.3652 40.026
1 15.178 11.0372 40.177
1 15.524 10.7092 40.328
3 15.87 10.3812 40.479
1 16.216 10.0532 40.63
1 16.562 9.72521 40.781
3 16.908 9.39721 40.932
1 17.254 9.06921 41.083
1 17.6 8.74121 41.234
3 17.946 8.41321 41.385
1 18.292 8.08521 41.536
4 18.638 7.75721 41.687
5 18.984 7.42921 41.838
1 19.33 7.10121 41.989
1 19.676 6.77321 42.14
3 20.022 6.44521 42.291
1 20.368 6.11721 42.442
1 20.714 5.78921 42.593
3 21.06 5.46121 42.744
1 21.406 5.13321 42.895
1 21.752 4.80521 43.046
3 22.098 4.47721 43.197
1 22.444 4.14921 43.348
1 22.79 3.82121 43.499
3 23.136 3.49321 43.65
1 23.482 3.16521 43.801
1 23.828 2.83721 43.952
3 24.174 2.50921 44.103
6 24.52 2.18121 44.254
2 -25.3111 -8.76904 11.9208
3 -24.8821 -8.88304 12.1518
1 -24.4531 -8.99704 12.3828
1 -24.0241 -9.11104 12.6138
3 -23.5951 -9.22504 12.8448
1 -23.1661 -9.33904 13.0758
1 -22.7371 -9.45304 13.3068
3 -22.3081 -9.56704 13.5378
1 -21.8791 -9.68104 13.7688
1 -21.4501 -9.79504 13.9998
3 -21.0211 -9.90904 14.2308
1 -20.5921 -10.023 14.4618
4 -20.1631 -10.137 14.6928
5 -19.7341 -10.251 14.9238
1 -19.3051 -10.365 15.1548
1 -18.8761 -10.479 15.3858
3 -18.4471 -10.593 15.6168
1 -18.0181 -10.707 15.8478
1 -17.5891 -10.821 16.0788
3 -17.1601 -10.935 16.3098
1 -16.7311 -11.049 16.5408
1 -16.3021 -11.163 16.7718
3 -15.8731 -11.277 17.0028
1 -15.4441 -11.391 17.2338
1 -15.0151 -11.505 17.4648
3 -14.5861 -11.619 17.6958
1 -14.1571 -11.733 17.9268
1 -13.7281 -11.847 18.1578
3 -13.2991 -11.961 18.3888
6 -12.8701 -12.075 18.6198
2 48.1221 -11.8969 -18.6309
3 47.9021 -11.4659 -18.7559
1 47.6821 -11.0349 -18.8809
1 47.4621 -10.6039 -19.0059
3 47.2421 -10.1729 -19.1309
1 47.0221 -9.74191 -19.2559
1 46.8021 -9.31091 -19.3809
3 46.5821 -8.87991 -19.5059
1 46.3621 -8.44891 -19.6309
1 46.1421 -8.01791 -19.7559
3 45.9221 -7.58691 -19.8809
1 45.7021 -7.15591 -20.0059
4 45.4821 -6.72491 -20.1309
5 45.2621 -6.29391 -20.2559
1 45.0421 -5.86291 -20.3809
1 44.8221 -5.43191 -20.5059
3 44.6021 -5.00091 -20.6309
1 44.3821 -4.56991 -20.7559
1 44.1621 -4.13891 -20.8809
3 43.9421 -3.70791 -21.0059
1 43.7221 -3.27691 -21.1309
1 43.5021 -2.84591 -21.2559
3 43.2821 -2.41491 -21.3809
1 43.0621 -1.98391 -21.5059
1 42.8421 -1.55291 -21.6309
3 42.6221 -1.12191 -21.7559
1 42.4021 -0.690911 -21.8809
1 42.1821 -0.259911 -22.0059
3 41.9621 0.171089 -22.1309
6 41.7421 0.602089 -22.2559
2 32.7835 32.0761 -21.1832
3 32.4975 31.7751 -20.9042
1 32.2115 31.4741 -20.6252
1 31.9255 31.1731 -20.3462
3 31.6395 30.8721 -20.0672
1 31.3535 30.5711 -19.7882
1 31.0675 30.2701 -19.5092
3 30.7815 29.9691 -19.2302
1 30.4955 29.6681 -18.9512
1 30.2095 29.3671 -18.6722
3 29.9235 29.0661 -18.3932
1 29.6375 28.7651 -18.1142
4 29.3515 28.4641 -17.8352
5 29.0655 28.1631 -17.5562
1 28.7795 27.8621 -17.2772
1 28.4935 27.5611 -16.9982
3 28.2075 27.2601 -16.7192
1 27.9215 26.9591 -16.4402
1 27.6355 26.6581 -16.1612
3 27.3495 26.3571 -15.8822
1 27.0635 26.0561 -15.6032
1 26.7775 25.7551 -15.3242
3 26.4915 25.4541 -15.0452
1 26.2055 25.1531 -14.7662
1 25.9195 24.8521 -14.4872
3 25.6335 24.5511 -14.2082
1 25.3475 24.2501 -13.9292
1 25.0615 23.9491 -13.6502
3 24.7755 23.6481 -13.3712
6 24.4895 23.3471 -13.0922
2 -8.70767 -15.8952 8.2345
3 -8.68067 -16.3082 7.9545
1 -8.65367 -16.7212 7.6745
1 -8.62667 -17.1342 7.3945
3 -8.59967 -17.5472 7.1145
1 -8.57267 -17.9602 6.8345
1 -8.54567 -18.3732 6.5545
3 -8.51867 -18.7862 6.2745
1 -8.49167 -19.1992 5.9945
1 -8.46467 -19.6122 5.7145
3 -8.43767 -20.0252 5.4345
1 -8.41067 -20.4382 5.1545
4 -8.38367 -20.8512 4.8745
5 -8.35667 -21.2642 4.5945
1 -8.32967 -21.6772 4.3145
1 -8.30267 -22.0902 4.0345
3 -8.27567 -22.5032 3.7545
1 -8.24867 -22.9162 3.4745
1 -8.22167 -23.3292 3.1945
3 -8.19467 -23.7422 2.9145
1 -8.16767 -24.1552 2.6345
1 -8.14067 -24.5682 2.3545
3 -8.11367 -24.9812 2.0745
1 -8.08667 -25.3942 1.7945
1 -8.05967 -25.8072 1.5145
3 -8.03267 -26.2202 1.2345
1 -8.00567 -26.6332 0.9545
1 -7.97867 -27.0462 0.6745
3 -7.95167 -27.4592 0.3945
6 -7.92467 -27.8722 0.1145
2 -11.3532 2.89067 -12.9695
3 -11.8102 3.09367 -12.9575
1 -12.2672 3.29667 -12.9455
1 -12.7242 3.49967 -12.9335
3 -13.1812 3.70267 -12.9215
1 -13.6382 3.90567 -12.9095
1 -14.0952 4.10867 -12.8975
3 -14.5522 4.31167 -12.8855
1 -15.0092 4.51467 -12.8735
1 -15.4662 4.71767 -12.8615
3 -15.9232 4.92067 -12.8495
1 -16.3802 5.12367 -12.8375
4 -16.8372 5.32667 -12.8255
5 -17.2942 5.52967 -12.8135
1 -17.7512 5.73267 -12.8015
1 -18.2082 5.93567 -12.7895
3 -18.6652 6.13867 -12.7775
1 -19.1222 6.34167 -12.7655
1 -19.5792 6.54467 -12.7535
3 -20.0362 6.74767 -12.7415
1 -20.4932 6.95067 -12.7295
1 -20.9502 7.15367 -12.7175
3 -21.4072 7.35667 -12.7055
1 -21.8642 7.55967 -12.6935
1 -22.3212 7.76267 -12.6815
3 -22.7782 7.96567 -12.6695
1 -23.2352 8.16867 -12.6575
1 -23.6922 8.37167 -12.6455
3 -24.1492 8.57467 -12.6335
6 -24.6062 8.77767 -12.6215
2 -2.73197 -41.0445 18.8215
3 -2.58497 -40.7395 18.4535
1 -2.43797 -40.4345 18.0855
1 -2.29097 -40.1295 17.7175
3 -2.14397 -39.8245 17.3495
1 -1.99697 -39.5195 16.9815
1 -1.84997 -39.2145 16.6135
3 -1.70297 -38.9095 16.2455
1 -1.55597 -38.6045 15.8775
1 -1.40897 -38.2995 15.5095
3 -1.26197 -37.9945 15.1415
1 -1.11497 -37.6895 14.7735
4 -0.967966 -37.3845 14.4055
5 -0.820966 -37.0795 14.0375
1 -0.673966 -36.7745 13.6695
1 -0.526966 -36.4695 13.3015
3 -0.379966 -36.1645 12.9335
1 -0.232966 -35.8595 12.5655
1 -0.0859663 -35.5545 12.1975
3 0.0610337 -35.2495 11.8295
1 0.208034 -34.9445 11.4615
1 0.355034 -34.6395 11.0935
3 0.502034 -34.3345 10.7255
1 0.649034 -34.0295 10.3575
1 0.796034 -33.7245 9.98955
3 0.943034 -33.4195 9.62155
1 1.09003 -33.1145 9.25355
1 1.23703 -32.8095 8.88555
3 1.38403 -32.5045 8.51755
6 1.53103 -32.1995 8.14955
2 -3.20874 36.459 -5.65802
3 -3.28074 36.719 -5.23702
1 -3.35274 36.979 -4.81602
1 -3.42474 37.239 -4.39502
3 -3.49674 37.499 -3.97402
1 -3.56874 37.759 -3.55302
1 -3.64074 38.019 -3.13202
3 -3.71274 38.279 -2.71102
1 -3.78474 38.539 -2.29002
1 -3.85674 38.799 -1.86902
3 -3.92874 39.059 -1.44802
1 -4.00074 39.319 -1.02702
4 -4.07274 39.579 -0.606024
5 -4.14474 39.839 -0.185024
1 -4.21674 40.099 0.235976
1 -4.28874 40.359 0.656976
3 -4.36074 40.619 1.07798
1 -4.43274 40.879 1.49898
1 -4.50474 41.139 1.91998
3 -4.57674 41.399 2.34098
1 -4.64874 41.659 2.76198
1 -4.72074 41.919 3.18298
3 -4.79274 42.179 3.60398
1 -4.86474 42.439 4.02498
1 -4.93674 42.699 4.44598
3 -5.00874 42.959 4.86698
1 -5.08074 43.219 5.28798
1 -5.15274 43.479 5.70898
3 -5.22474 43.739 6.12998
6 -5.29674 43.999 6.55098
2 22.1442 -3.60855 5.5843
3 21.6692 -3.65655 5.7333
1 21.1942 -3.70455 5.8823
1 20.7192 -3.75255 6.0313
3 20.2442 -3.80055 6.1803
1 19.7692 -3.84855 6.3293
1 19.2942 -3.89655 6.4783
3 18.8192 -3.94455 6.6273
1 18.3442 -3.99255 6.7763
1 17.8692 -4.04055 6.9253
3 17.3942 -4.08855 7.0743
1 16.9192 -4.13655 7.2233
4 16.4442 -4.18455 7.3723
5 15.9692 -4.23255 7.5213
1 15.4942 -4.28055 7.6703
1 15.0192 -4.32855 7.8193
3 14.5442 -4.37655 7.9683
1 14.0692 -4.42455 8.1173
1 13.5942 -4.47255 8.2663
3 13.1192 -4.52055 8.4153
1 12.6442 -4.56855 8.5643
1 12.1692 -4.61655 8.7133
3 11.6942 -4.66455 8.8623
1 11.2192 -4.71255 9.0113
1 10.7442 -4.76055 9.1603
3 10.2692 -4.80855 9.3093
1 9.79423 -4.85655 9.4583
1 9.31923 -4.90455 9.6073
3 8.84423 -4.95255 9.7563
6 8.36923 -5.00055 9.9053
2 1.24527 -32.2553 -21.1952
3 0.847271 -32.2663 -20.8922
1 0.449271 -32.2773 -20.5892
1 0.0512714 -32.2883 -20.2862
3 -0.346729 -32.2993 -19.9832
1 -0.744729 -32.3103 -19.6802
1 -1.14273 -32.3213 -19.3772
3 -1.54073 -32.3323 -19.0742
1 -1.93873 -32.3433 -18.7712
1 -2.33673 -32.3543 -18.4682
3 -2.73473 -32.3653 -18.1652
1 -3.13273 -32.3763 -17.8622
4 -3.53073 -32.3873 -17.5592
5 -3.92873 -32.3983 -17.2562
1 -4.32673 -32.4093 -16.9532
1 -4.72473 -32.4203 -16.6502
3 -5.12273 -32.4313 -16.3472
1 -5.52073 -32.4423 -16.0442
1 -5.91873 -32.4533 -15.7412
3 -6.31673 -32.4643 -15.4382
1 -6.71473 -32.4753 -15.1352
1 -7.11273 -32.4863 -14.8322
3 -7.51073 -32.4973 -14.5292
1 -7.90873 -32.5083 -14.2262
1 -8.30673 -32.5193 -13.9232
3 -8.70473 -32.5303 -13.6202
1 -9.10273 -32.5413 -13.3172
1 -9.50073 -32.5523 -13.0142
3 -9.89873 -32.5633 -12.7112
6 -10.2967 -32.5743 -12.4082
2 16.7421 39.48 -0.6446
3 17.1251 39.764 -0.7956
1 17.5081 40.048 -0.9466
1 17.8911 40.332 -1.0976
3 18.2741 40.616 -1.2486
1 18.6571 40.9 -1.3996
1 19.0401 41.184 -1.5506
3 19.4231 41.468 -1.7016
1 19.8061 41.752 -1.8526
1 20.1891 42.036 -2.0036
3 20.5721 42.32 -2.1546
1 20.9551 42.604 -2.3056
4 21.3381 42.888 -2.4566
5 21.7211 43.172 -2.6076
1 22.1041 43.456 -2.7586
1 22.4871 43.74 -2.9096
3 22.8701 44.024 -3.0606
1 23.2531 44.308 -3.2116
1 23.6361 44.592 -3.3626
3 24.0191 44.876 -3.5136
1 24.4021 45.16 -3.6646
1 24.7851 45.444 -3.8156
3 25.1681 45.728 -3.9666
1 25.5511 46.012 -4.1176
1 25.9341 46.296 -4.2686
3 26.3171 46.58 -4.4196
1 26.7001 46.864 -4.5706
1 27.0831 47.148 -4.7216
3 27.4661 47.432 -4.8726
6 27.8491 47.716 -5.0236
2 -18.1995 26.5368 -24.6873
3 -18.3845 26.7308 -24.2653
1 -18.5695 26.9248 -23.8433
1 -18.7545 27.1188 -23.4213
3 -18.9395 27.3128 -22.9993
1 -19.1245 27.5068 -22.5773
1 -19.3095 27.7008 -22.1553
3 -19.4945 27.8948 -21.7333
1 -19.6795 28.0888 -21.3113
1 -19.8645 28.2828 -20.8893
3 -20.0495 28.4768 -20.4673
1 -20.2345 28.6708 -20.0453
4 -20.4195 28.8648 -19.6233
5 -20.6045 29.0588 -19.2013
1 -20.7895 29.2528 -18.7793
1 -20.9745 29.4468 -18.3573
3 -21.1595 29.6408 -17.9353
1 -21.3445 29.8348 -17.5133
1 -21.5295 30.0288 -17.0913
3 -21.7145 30.2228 -16.6693
1 -21.8995 30.4168 -16.2473
1 -22.0845 30.6108 -15.8253
3 -22.2695 30.8048 -15.4033
1 -22.4545 30.9988 -14.9813
1 -22.6395 31.1928 -14.5593
3 -22.8245 31.3868 -14.1373
1 -23.0095 31.5808 -13.7153
1 -23.1945 31.7748 -13.2933
3 -23.3795 31.9688 -12.8713
6 -23.5645 32.1628 -12.4493
2 21.2515 0.973236 13.8927
3 21.4525 0.577236 14.1217
1 21.6535 0.181236 14.3507
1 21.8545 -0.214764 14.5797
3 22.0555 -0.610764 14.8087
1 22.2565 -1.00676 15.0377
1 22.4575 -1.40276 15.2667
3 22.6585 -1.79876 15.4957
1 22.8595 -2.19476 15.7247
1 23.0605 -2.59076 15.9537
3 23.2615 -2.98676 16.1827
1 23.4625 -3.38276 16.4117
4 23.6635 -3.77876 16.6407
5 23.8645 -4.17476 16.8697
1 24.0655 -4.57076 17.0987
1 24.2665 -4.96676 17.3277
3 24.4675 -5.36276 17.5567
1 24.6685 -5.75876 17.7857
1 24.8695 -6.15476 18.0147
3 25.0705 -6.55076 18.2437
1 25.2715 -6.94676 18.4727
1 25.4725 -7.34276 18.7017
3 25.6735 -7.73876 18.9307
1 25.8745 -8.13476 19.1597
1 26.0755 -8.53076 19.3887
3 26.2765 -8.92676 19.6177
1 26.4775 -9.32276 19.8467
1 26.6785 -9.71876 20.0757
3 26.8795 -10.1148 20.3047
6 27.0805 -10.5108 20.5337
2 7.78315 -17.1524 -24.8848
3 8.12715 -16.9614 -25.1938
1 8.47115 -16.7704 -25.5028
1 8.81515 -16.5794 -25.8118
3 9.15915 -16.3884 -26.1208
1 9.50315 -16.1974 -26.4298
1 9.84715 -16.0064 -26.7388
3 10.1911 -15.8154 -27.0478
1 10.5351 -15.6244 -27.3568
1 10.8791 -15.4334 -27.6658
3 11.2231 -15.2424 -27.9748
1 11.5671 -15.0514 -28.2838
4 11.9111 -14.8604 -28.5928
5 12.2551 -14.6694 -28.9018
1 12.5991 -14.4784 -29.2108
1 12.9431 -14.2874 -29.5198
3 13.2871 -14.0964 -29.8288
1 13.6311 -13.9054 -30.1378
1 13.9751 -13.7144 -30.4468
3 14.3191 -13.5234 -30.7558
1 14.6631 -13.3324 -31.0648
1 15.0071 -13.1414 -31.3738
3 15.3511 -12.9504 -31.6828
1 15.6951 -12.7594 -31.9918
1 16.0391 -12.5684 -32.3008
3 16.3831 -12.3774 -32.6098
1 16.7271 -12.1864 -32.9188
1 17.0711 -11.9954 -33.2278
3 17.4151 -11.8044 -33.5368
6 17.7591 -11.6134 -33.8458
2 4.40962 -0.321585 -11.998
3 4.02062 -0.016585 -12.074
1 3.63162 0.288415 -12.15
1 3.24262 0.593415 -12.226
3 2.85362 0.898415 -12.302
1 2.46462 1.20341 -12.378
1 2.07562 1.50841 -12.454
3 1.68662 1.81341 -12.53
1 1.29762 2.11841 -12.606
1 0.908621 2.42341 -12.682
3 0.519621 2.72841 -12.758
1 0.130621 3.03341 -12.834
4 -0.258379 3.33841 -12.91
5 -0.647379 3.64341 -12.986
1 -1.03638 3.94841 -13.062
1 -1.42538 4.25341 -13.138
3 -1.81438 4.55841 -13.214
1 -2.20338 4.86341 -13.29
1 -2.59238 5.16841 -13.366
3 -2.98138 5.47341 -13.442
1 -3.37038 5.77841 -13.518
1 -3.75938 6.08341 -13.594
3 -4.14838 6.38841 -13.67
1 -4.53738 6.69341 -13.746
1 -4.92638 6.99841 -13.822
3 -5.31538 7.30341 -13.898
1 -5.70438 7.60841 -13.974
1 -6.09338 7.91341 -14.05
3 -6.48238 8.21841 -14.126
6 -6.87138 8.52341 -14.202
2 -13.4769 -30.6483 36.075
3 -13.7679 -30.9343 35.786
1 -14.0589 -31.2203 35.497
1 -14.3499 -31.5063 35.208
3 -14.6409 -31.7923 34.919
1 -14.9319 -32.0783 34.63
1 -15.2229 -32.3643 34.341
3 -15.5139 -32.6503 34.052
1 -15.8049 -32.9363 33.763
1 -16.0959 -33.2223 33.474
3 -16.3869 -33.5083 33.185
1 -16.6779 -33.7943 32.896
4 -16.9689 -34.0803 32.607
5 -17.2599 -34.3663 32.318
1 -17.5509 -34.6523 32.029
1 -17.8419 -34.9383 31.74
3 -18.1329 -35.2243 31.451
1 -18.4239 -35.5103 31.162
1 -18.7149 -35.7963 30.873
3 -19.0059 -36.0823 30.584
1 -19.2969 -36.3683 30.295
1 -19.5879 -36.6543 30.006
3 -19.8789 -36.9403 29.717
1 -20.1699 -37.2263 29.428
1 -20.4609 -37.5123 29.139
3 -20.7519 -37.7983 28.85
1 -21.0429 -38.0843 28.561
1 -21.3339 -38.3703 28.272
3 -21.6249 -38.6563 27.983
6 -21.9159 -38.9423 27.694
2 49.8532 -14.4505 -17.9233
3 49.5442 -14.2545 -17.5833
1 49.2352 -14.0585 -17.2433
1 48.9262 -13.8625 -16.9033
3 48.6172 -13.6665 -16.5633
1 48.3082 -13.4705 -16.2233
1 47.9992 -13.2745 -15.8833
3 47.6902 -13.0785 -15.5433
1 47.3812 -12.8825 -15.2033
1 47.0722 -12.6865 -14.8633
3 46.7632 -12.4905 -14.5233
1 46.4542 -12.2945 -14.1833
4 46.1452 -12.0985 -13.8433
5 45.8362 -11.9025 -13.5033
1 45.5272 -11.7065 -13.1633
1 45.2182 -11.5105 -12.8233
3 44.9092 -11.3145 -12.4833
1 44.6002 -11.1185 -12.1433
1 44.2912 -10.9225 -11.8033
3 43.9822 -10.7265 -11.4633
1 43.6732 -10.5305 -11.1233
1 43.3642 -10.3345 -10.7833
3 43.0552 -10.1385 -10.4433
1 42.7462 -9.9425 -10.1033
1 42.4372 -9.7465 -9.76328
3 42.1282 -9.5505 -9.42328
1 41.8192 -9.3545 -9.08328
1 41.5102 -9.1585 -8.74328
3 41.2012 -8.9625 -8.40328
6 40.8922 -8.7665 -8.06328
2 42.1742 35.6447 -13.2816
3 41.8922 35.4267 -12.9306
1 41.6102 35.2087 -12.5796
1 41.3282 34.9907 -12.2286
3 41.0462 34.7727 -11.8776
1 40.7642 34.5547 -11.5266
1 40.4822 34.3367 -11.1756
3 40.2002 34.1187 -10.8246
1 39.9182 33.9007 -10.4736
1 39.6362 33.6827 -10.1226
3 39.3542 33.4647 -9.7716
1 39.0722 33.2467 -9.4206
4 38.7902 33.0287 -9.0696
5 38.5082 32.8107 -8.7186
1 38.2262 32.5927 -8.3676
1 37.9442 32.3747 -8.0166
3 37.6622 32.1567 -7.6656
1 37.3802 31.9387 -7.3146
1 37.0982 31.7207 -6.9636
3 36.8162 31.5027 -6.6126
1 36.5342 31.2847 -6.2616
1 36.2522 31.0667 -5.9106
3 35.9702 30.8487 -5.5596
1 35.6882 30.6307 -5.2086
1 35.4062 30.4127 -4.8576
3 35.1242 30.1947 -4.5066
1 34.8422 29.9767 -4.1556
1 34.5602 29.7587 -3.8046
3 34.2782 29.5407 -3.4536
6 33.9962 29.3227 -3.1026
2 -10.8932 28.6241 35.5101
3 -11.1092 28.2301 35.7291
1 -11.3252 27.8361 35.9481
1 -11.5412 27.4421 36.1671
3 -11.7572 27.0481 36.3861
1 -11.9732 26.6541 36.6051
1 -12.1892 26.2601 36.8241
3 -12.4052 25.8661 37.0431
1 -12.6212 25.4721 37.2621
1 -12.8372 25.0781 37.4811
3 -13.0532 24.6841 37.7001
1 -13.2692 24.2901 37.9191
4 -13.4852 23.8961 38.1381
5 -13.7012 23.5021 38.3571
1 -13.9172 23.1081 38.5761
1 -14.1332 22.7141 38.7951
3 -14.3492 22.3201 39.0141
1 -14.5652 21.9261 39.2331
1 -14.7812 21.5321 39.4521
3 -14.9972 21.1381 39.6711
1 -15.2132 20.7441 39.8901
1 -15.4292 20.3501 40.1091
3 -15.6452 19.9561 40.3281
1 -15.8612 19.5621 40.5471
1 -16.0772 19.1681 40.7661
3 -16.2932 18.7741 40.9851
1 -16.5092 18.3801 41.2041
1 -16.7252 17.9861 41.4231
3 -16.9412 17.5921 41.6421
6 -17.1572 17.1981 41.8611
2 -14.0932 24.8079 11.6974
3 -13.7762 25.1949 11.7144
1 -13.4592 25.5819 11.7314
1 -13.1422 25.9689 11.7484
3 -12.8252 26.3559 11.7654
1 -12.5082 26.7429 11.7824
1 -12.1912 27.1299 11.7994
3 -11.8742 27.5169 11.8164
1 -11.5572 27.9039 11.8334
1 -11.2402 28.2909 11.8504
3 -10.9232 28.6779 11.8674
1 -10.6062 29.0649 11.8844
4 -10.2892 29.4519 11.9014
5 -9.97221 29.8389 11.9184
1 -9.65521 30.2259 11.9354
1 -9.33821 30.6129 11.9524
3 -9.02121 30.9999 11.9694
1 -8.70421 31.3869 11.9864
1 -8.38721 31.7739 12.0034
3 -8.07021 32.1609 12.0204
1 -7.75321 32.5479 12.0374
1 -7.43621 32.9349 12.0544
3 -7.11921 33.3219 12.0714
1 -6.80221 33.7089 12.0884
1 -6.48521 34.0959 12.1054
3 -6.16821 34.4829 12.1224
1 -5.85121 34.8699 12.1394
1 -5.53421 35.2569 12.1564
3 -5.21721 35.6439 12.1734
6 -4.90021 36.0309 12.1904
2 32.145 -42.3821 4.72181
3 32.408 -41.9571 4.71181
1 32.671 -41.5321 4.70181
1 32.934 -41.1071 4.69181
3 33.197 -40.6821 4.68181
1 33.46 -40.2571 4.67181
1 33.723 -39.8321 4.66181
3 33.986 -39.4071 4.65181
1 34.249 -38.9821 4.64181
1 34.512 -38.5571 4.63181
3 34.775 -38.1321 4.62181
1 35.038 -37.7071 4.61181
4 35.301 -37.2821 4.60181
5 35.564 -36.8571 4.59181
1 35.827 -36.4321 4.58181
1 36.09 -36.0071 4.57181
3 36.353 -35.5821 4.56181
1 36.616 -35.1571 4.55181
1 36.879 -34.7321 4.54181
3 37.142 -34.3071 4.53181
1 37.405 -33.8821 4.52181
1 37.668 -33.4571 4.51181
3 37.931 -33.0321 4.50181
1 38.194 -32.6071 4.49181
1 38.457 -32.1821 4.48181
3 38.72 -31.7571 4.47181
1 38.983 -31.3321 4.46181
1 39.246 -30.9071 4.45181
3 39.509 -30.4821 4.44181
6 39.772 -30.0571 4.43181
2 28.2163 -2.72169 37.7254
3 28.7023 -2.83669 37.7544
1 29.1883 -2.95169 37.7834
1 29.6743 -3.06669 37.8124
3 30.1603 -3.18169 37.8414
1 30.6463 -3.29669 37.8704
1 31.1323 -3.41169 37.8994
3 31.6183 -3.52669 37.9284
1 32.1043 -3.64169 37.9574
1 32.5903 -3.75669 37.9864
3 33.0763 -3.87169 38.0154
1 33.5623 -3.98669 38.0444
4 34.0483 -4.10169 38.0734
5 34.5343 -4.21669 38.1024
1 35.0203 -4.33169 38.1314
1 35.5063 -4.44669 38.1604
3 35.9923 -4.56169 38.1894
1 36.4783 -4.67669 38.2184
1 36.9643 -4.79169 38.2474
3 37.4503 -4.90669 38.2764
1 37.9363 -5.02169 38.3054
1 38.4223 -5.13669 38.3344
3 38.9083 -5.25169 38.3634
1 39.3943 -5.36669 38.3924
1 39.8803 -5.48169 38.4214
3 40.3663 -5.59669 38.4504
1 40.8523 -5.71169 38.4794
1 41.3383 -5.82669 38.5084
3 41.8243 -5.94169 38.5374
6 42.3103 -6.05669 38.5664
2 -31.273 -38.79 -20.7159
3 -31.09 -39.097 -21.0659
1 -30.907 -39.404 -21.4159
1 -30.724 -39.711 -21.7659
3 -30.541 -40.018 -22.1159
1 -30.358 -40.325 -22.4659
1 -30.175 -40.632 -22.8159
3 -29.992 -40.939 -23.1659
1 -29.809 -41.246 -23.5159
1 -29.626 -41.553 -23.8659
3 -29.443 -41.86 -24.2159
1 -29.26 -42.167 -24.5659
4 -29.077 -42.474 -24.9159
5 -28.894 -42.781 -25.2659
1 -28.711 -43.088 -25.6159
1 -28.528 -43.395 -25.9659
3 -28.345 -43.702 -26.3159
1 -28.162 -44.009 -26.6659
1 -27.979 -44.316 -27.0159
3 -27.796 -44.623 -27.3659
1 -27.613 -44.93 -27.7159
1 -27.43 -45.237 -28.0659
3 -27.247 -45.544 -28.4159
1 -27.064 -45.851 -28.7659
1 -26.881 -46.158 -29.1159
3 -26.698 -46.465 -29.4659
1 -26.515 -46.772 -29.8159
1 -26.332 -47.079 -30.1659
3 -26.149 -47.386 -30.5159
6 -25.966 -47.693 -30.8659
2 -28.2708 -8.48174 14.6286
3 -28.6518 -8.16274 14.6896
1 -29.0328 -7.84374 14.7506
1 -29.4138 -7.52474 14.8116
3 -29.7948 -7.20574 14.8726
1 -30.1758 -6.88674 14.9336
1 -30.5568 -6.56774 14.9946
3 -30.9378 -6.24874 15.0556
1 -31.3188 -5.92974 15.1166
1 -31.6998 -5.61074 15.1776
3 -32.0808 -5.29174 15.2386
1 -32.4618 -4.97274 15.2996
4 -32.8428 -4.65374 15.3606
5 -33.2238 -4.33474 15.4216
1 -33.6048 -4.01574 15.4826
1 -33.9858 -3.69674 15.5436
3 -34.3668 -3.37774 15.6046
1 -34.7478 -3.05874 15.6656
1 -35.1288 -2.73974 15.7266
3 -35.5098 -2.42074 15.7876
1 -35.8908 -2.10174 15.8486
1 -36.2718 -1.78274 15.9096
3 -36.6528 -1.46374 15.9706
1 -37.0338 -1.14474 16.0316
1 -37.4148 -0.825737 16.0926
3 -37.7958 -0.506737 16.1536
1 -38.1768 -0.187737 16.2146
1 -38.5578 0.131263 16.2756
3 -38.9388 0.450263 16.3366
6 -39.3198 0.769263 16.3976
2 24.2227 -36.934 27.3961
3 23.7297 -36.968 27.3221
1 23.2367 -37.002 27.2481
1 22.7437 -37.036 27.1741
3 22.2507 -37.07 27.1001
1 21.7577 -37.104 27.0261
1 21.2647 -37.138 26.9521
3 20.7717 -37.172 26.8781
1 20.2787 -37.206 26.8041
1 19.7857 -37.24 26.7301
3 19.2927 -37.274 26.6561
1 18.7997 -37.308 26.5821
4 18.3067 -37.342 26.5081
5 17.8137 -37.376 26.4341
1 17.3207 -37.41 26.3601
1 16.8277 -37.444 26.2861
3 16.3347 -37.478 26.2121
1 15.8417 -37.512 26.1381
1 15.3487 -37.546 26.0641
3 14.8557 -37.58 25.9901
1 14.3627 -37.614 25.9161
1 13.8697 -37.648 25.8421
3 13.3767 -37.682 25.7681
1 12.8837 -37.716 25.6941
1 12.3907 -37.75 25.6201
3 11.8977 -37.784 25.5461
1 11.4047 -37.818 25.4721
1 10.9117 -37.852 25.3981
3 10.4187 -37.886 25.3241
6 9.92568 -37.92 25.2501
2 6.87135 -31.5366 33.5407
3 6.55435 -31.5236 33.9267
1 6.23735 -31.5106 34.3127
1 5.92035 -31.4976 34.6987
3 5.60335 -31.4846 35.0847
1 5.28635 -31.4716 35.4707
1 4.96935 -31.4586 35.8567
3 4.65235 -31.4456 36.2427
1 4.33535 -31.4326 36.6287
1 4.01835 -31.4196 37.0147
3 3.70135 -31.4066 37.4007
1 3.38435 -31.3936 37.7867
4 3.06735 -31.3806 38.1727
5 2.75035 -31.3676 38.5587
1 2.43335 -31.3546 38.9447
1 2.11635 -31.3416 39.3307
3 1.79935 -31.3286 39.7167
1 1.48235 -31.3156 40.1027
1 1.16535 -31.3026 40.4887
3 0.848345 -31.2896 40.8747
1 0.531345 -31.2766 41.2607
1 0.214345 -31.2636 41.6467
3 -0.102655 -31.2506 42.0327
1 -0.419655 -31.2376 42.4187
1 -0.736655 -31.2246 42.8047
3 -1.05365 -31.2116 43.1907
1 -1.37065 -31.1986 43.5767
1 -1.68765 -31.1856 43.9627
3 -2.00465 -31.1726 44.3487
6 -2.32165 -31.1596 44.7347
2 27.8092 -41.76 -11.4781
3 27.8912 -41.968 -11.9251
1 27.9732 -42.176 -12.3721
1 28.0552 -42.384 -12.8191
3 28.1372 -42.592 -13.2661
1 28.2192 -42.8 -13.7131
1 28.3012 -43.008 -14.1601
3 28.3832 -43.216 -14.6071
1 28.4652 -43.424 -15.0541
1 28.5472 -43.632 -15.5011
3 28.6292 -43.84 -15.9481
1 28.7112 -44.048 -16.3951
4 28.7932 -44.256 -16.8421
5 28.8752 -44.464 -17.2891
1 28.9572 -44.672 -17.7361
1 29.0392 -44.88 -18.1831
3 29.1212 -45.088 -18.6301
1 29.2032 -45.296 -19.0771
1 29.2852 -45.504 -19.5241
3 29.3672 -45.712 -19.9711
1 29.4492 -45.92 -20.4181
1 29.5312 -46.128 -20.8651
3 29.6132 -46.336 -21.3121
1 29.6952 -46.544 -21.7591
1 29.7772 -46.752 -22.2061
3 29.8592 -46.96 -22.6531
1 29.9412 -47.168 -23.1001
1 30.0232 -47.376 -23.5471
3 30.1052 -47.584 -23.9941
6 30.1872 -47.792 -24.4411
2 -35.5657 33.9106 -7.11188
3 -35.6117 34.3246 -6.83488
1 -35.6577 34.7386 -6.55788
1 -35.7037 35.1526 -6.28088
3 -35.7497 35.5666 -6.00388
1 -35.7957 35.9806 -5.72688
1 -35.8417 36.3946 -5.44988
3 -35.8877 36.8086 -5.17288
1 -35.9337 37.2226 -4.89588
1 -35.9797 37.6366 -4.61888
3 -36.0257 38.0506 -4.34188
1 -36.0717 38.4646 -4.06488
4 -36.1177 38.8786 -3.78788
5 -36.1637 39.2926 -3.51088
1 -36.2097 39.7066 -3.23388
1 -36.2557 40.1206 -2.95688
3 -36.3017 40.5346 -2.67988
1 -36.3477 40.9486 -2.40288
1 -36.3937 41.3626 -2.12588
3 -36.4397 41.7766 -1.84888
1 -36.4857 42.1906 -1.57188
1 -36.5317 42.6046 -1.29488
3 -36.5777 43.0186 -1.01788
1 -36.6237 43.4326 -0.740877
1 -36.6697 43.8466 -0.463877
3 -36.7157 44.2606 -0.186877
1 -36.7617 44.6746 0.0901228
1 -36.8077 45.0886 0.367123
3 -36.8537 45.5026 0.644123
6 -36.8997 45.9166 0.921123
2 -9.14014 -2.66728 -6.79561
3 -9.55114 -2.46228 -6.99361
1 -9.96214 -2.25728 -7.19161
1 -10.3731 -2.05228 -7.38961
3 -10.7841 -1.84728 -7.58761
1 -11.1951 -1.64228 -7.78561
1 -11.6061 -1.43728 -7.98361
3 -12.0171 -1.23228 -8.18161
1 -12.4281 -1.02728 -8.37961
1 -12.8391 -0.822278 -8.57761
3 -13.2501 -0.617278 -8.77561
1 -13.6611 -0.412278 -8.97361
4 -14.0721 -0.207278 -9.17161
5 -14.4831 -0.00227787 -9.36961
1 -14.8941 0.202722 -9.56761
1 -15.3051 0.407722 -9.76561
3 -15.7161 0.612722 -9.96361
1 -16.1271 0.817722 -10.1616
1 -16.5381 1.02272 -10.3596
3 -16.9491 1.22772 -10.5576
1 -17.3601 1.43272 -10.7556
1 -17.7711 1.63772 -10.9536
3 -18.1821 1.84272 -11.1516
1 -18.5931 2.04772 -11.3496
1 -19.0041 2.25272 -11.5476
3 -19.4151 2.45772 -11.7456
1 -19.8261 2.66272 -11.9436
1 -20.2371 2.86772 -12.1416
3 -20.6481 3.07272 -12.3396
6 -21.0591 3.27772 -12.5376
2 -35.0477 43.1998 -28.3931
3 -34.8657 42.7388 -28.3241
1 -34.6837 42.2778 -28.2551
1 -34.5017 41.8168 -28.1861
3 -34.3197 41.3558 -28.1171
1 -34.1377 40.8948 -28.0481
1 -33.9557 40.4338 -27.9791
3 -33.7737 39.9728 -27.9101
1 -33.5917 39.5118 -27.8411
1 -33.4097 39.0508 -27.7721
3 -33.2277 38.5898 -27.7031
1 -33.0457 38.1288 -27.6341
4 -32.8637 37.6678 -27.5651
5 -32.6817 37.2068 -27.4961
1 -32.4997 36.7458 -27.4271
1 -32.3177 36.2848 -27.3581
3 -32.1357 35.8238 -27.2891
1 -31.9537 35.3628 -27.2201
1 -31.7717 34.9018 -27.1511
3 -31.5897 34.4408 -27.0821
1 -31.4077 33.9798 -27.0131
1 -31.2257 33.5188 -26.9441
3 -31.0437 33.0578 -26.8751
1 -30.8617 32.5968 -26.8061
1 -30.6797 32.1358 -26.7371
3 -30.4977 31.6748 -26.6681
1 -30.3157 31.2138 -26.5991
1 -30.1337 30.7528 -26.5301
3 -29.9517 30.2918 -26.4611
6 -29.7697 29.8308 -26.3921
2 29.4773 -12.4196 -4.03282
3 29.8203 -12.7216 -4.23582
1 30.1633 -13.0236 -4.43882
1 30.5063 -13.3256 -4.64182
3 30.8493 -13.6276 -4.84482
1 31.1923 -13.9296 -5.04782
1 31.5353 -14.2316 -5.25082
3 31.8783 -14.5336 -5.45382
1 32.2213 -14.8356 -5.65682
1 32.5643 -15.1376 -5.85982
3 32.9073 -15.4396 -6.06282
1 33.2503 -15.7416 -6.26582
4 33.5933 -16.0436 -6.46882
5 33.9363 -16.3456 -6.67182
1 34.2793 -16.6476 -6.87482
1 34.6223 -16.9496 -7.07782
3 34.9653 -17.2516 -7.28082
1 35.3083 -17.5536 -7.48382
1 35.6513 -17.8556 -7.68682
3 35.9943 -18.1576 -7.88982
1 36.3373 -18.4596 -8.09282
1 36.6803 -18.7616 -8.29582
3 37.0233 -19.0636 -8.49882
1 37.3663 -19.3656 -8.70182
1 37.7093 -19.6676 -8.90482
3 38.0523 -19.9696 -9.10782
1 38.3953 -20.2716 -9.31082
1 38.7383 -20.5736 -9.51382
3 39.0813 -20.8756 -9.71682
6 39.4243 -21.1776 -9.91982
2 -30.8856 24.9816 20.2345
3 -31.3736 25.0296 20.3325
1 -31.8616 25.0776 20.4305
1 -32.3496 25.1256 20.5285
3 -32.8376 25.1736 20.6265
1 -33.3256 25.2216 20.7245
1 -33.8136 25.2696 20.8225
3 -34.3016 25.3176 20.9205
1 -34.7896 25.3656 21.0185
1 -35.2776 25.4136 21.1165
3 -35.7656 25.4616 21.2145
1 -36.2536 25.5096 21.3125
4 -36.7416 25.5576 21.4105
5 -37.2296 25.6056 21.5085
1 -37.7176 25.6536 21.6065
1 -38.2056 25.7016 21.7045
3 -38.6936 25.7496 21.8025
1 -39.1816 25.7976 21.9005
1 -39.6696 25.8456 21.9985
3 -40.1576 25.8936 22.0965
1 -40.6456 25.9416 22.1945
1 -41.1336 25.9896 22.2925
3 -41.6216 26.0376 22.3905
1 -42.1096 26.0856 22.4885
1 -42.5976 26.1336 22.5865
3 -43.0856 26.1816 22.6845
1 -43.5736 26.2296 22.7825
1 -44.0616 26.2776 22.8805
3 -44.5496 26.3256 22.9785
6 -45.0376 26.3736 23.0765
2 25.6021 -26.6841 37.8765
3 26.0001 -26.5181 38.1285
1 26.3981 -26.3521 38.3805
1 26.7961 -26.1861 38.6325
3 27.1941 -26.0201 38.8845
1 27.5921 -25.8541 39.1365
1 27.9901 -25.6881 39.3885
3 28.3881 -25.5221 39.6405
1 28.7861 -25.3561 39.8925
1 29.1841 -25.1901 40.1445
3 29.5821 -25.0241 40.3965
1 29.9801 -24.8581 40.6485
4 30.3781 -24.6921 40.9005
5 30.7761 -24.5261 41.1525
1 31.1741 -24.3601 41.4045
1 31.5721 -24.1941 41.6565
3 31.9701 -24.0281 41.9085
1 32.3681 -23.8621 42.1605
1 32.7661 -23.6961 42.4125
3 33.1641 -23.5301 42.6645
1 33.5621 -23.3641 42.9165
1 33.9601 -23.1981 43.1685
3 34.3581 -23.0321 43.4205
1 34.7561 -22.8661 43.6725
1 35.1541 -22.7001 43.9245
3 35.5521 -22.5341 44.1765
1 35.9501 -22.3681 44.4285
1 36.3481 -22.2021 44.6805
3 36.7461 -22.0361 44.9325
6 37.1441 -21.8701 45.1845
2 10.7179 -4.04255 -29.0793
3 10.4699 -3.70455 -29.3513
1 10.2219 -3.36655 -29.6233
1 9.9739 -3.02855 -29.8953
3 9.7259 -2.69055 -30.1673
1 9.4779 -2.35255 -30.4393
1 9.2299 -2.01455 -30.7113
3 8.9819 -1.67655 -30.9833
1 8.7339 -1.33855 -31.2553
1 8.4859 -1.00055 -31.5273
3 8.2379 -0.662546 -31.7993
1 7.9899 -0.324546 -32.0713
4 7.7419 0.0134537 -32.3433
5 7.4939 0.351454 -32.6153
1 7.2459 0.689454 -32.8873
1 6.9979 1.02745 -33.1593
3 6.7499 1.36545 -33.4313
1 6.5019 1.70345 -33.7033
1 6.2539 2.04145 -33.9753
3 6.0059 2.37945 -34.2473
1 5.7579 2.71745 -34.5193
1 5.5099 3.05545 -34.7913
3 5.2619 3.39345 -35.0633
1 5.0139 3.73145 -35.3353
1 4.7659 4.06945 -35.6073
3 4.5179 4.40745 -35.8793
1 4.2699 4.74545 -36.1513
1 4.0219 5.08345 -36.4233
3 3.7739 5.42145 -36.6953
6 3.5259 5.75945 -36.9673
2 1.90122 -10.6637 39.1588
3 1.80022 -10.2247 38.9418
1 1.69922 -9.78572 38.7248
1 1.59822 -9.34672 38.5078
3 1.49722 -8.90772 38.2908
1 1.39622 -8.46872 38.0738
1 1.29522 -8.02972 37.8568
3 1.19422 -7.59072 37.6398
1 1.09322 -7.15172 37.4228
1 0.992221 -6.71272 37.2058
3 0.891221 -6.27372 36.9888
1 0.790221 -5.83472 36.7718
4 0.689221 -5.39572 36.5548
5 0.588221 -4.95672 36.3378
1 0.487221 -4.51772 36.1208
1 0.386221 -4.07872 35.9038
3 0.285221 -3.63972 35.6868
1 0.184221 -3.20072 35.4698
1 0.083221 -2.76172 35.2528
3 -0.017779 -2.32272 35.0358
1 -0.118779 -1.88372 34.8188
1 -0.219779 -1.44472 34.6018
3 -0.320779 -1.00572 34.3848
1 -0.421779 -0.566723 34.1678
1 -0.522779 -0.127723 33.9508
3 -0.623779 0.311277 33.7338
1 -0.724779 0.750277 33.5168
1 -0.825779 1.18928 33.2998
3 -0.926779 1.62828 33.0828
6 -1.02778 2.06728 32.8658
2 44.07 11.2582 -14.9421
3 44.201 11.6372 -14.6431
1 44.332 12.0162 -14.3441
1 44.463 12.3952 -14.0451
3 44.594 12.7742 -13.7461
1 44.725 13.1532 -13.4471
1 44.856 13.5322 -13.1481
3 44.987 13.9112 -12.8491
1 45.118 14.2902 -12.5501
1 45.249 14.6692 -12.2511
3 45.38 15.0482 -11.9521
1 45.511 15.4272 -11.6531
4 45.642 15.8062 -11.3541
5 45.773 16.1852 -11.0551
1 45.904 16.5642 -10.7561
1 46.035 16.9432 -10.4571
3 46.166 17.3222 -10.1581
1 46.297 17.7012 -9.85909
1 46.428 18.0802 -9.56009
3 46.559 18.4592 -9.26109
1 46.69 18.8382 -8.96209
1 46.821 19.2172 -8.66309
3 46.952 19.5962 -8.36409
1 47.083 19.9752 -8.06509
1 47.214 20.3542 -7.76609
3 47.345 20.7332 -7.46709
1 47.476 21.1122 -7.16809
1 47.607 21.4912 -6.86909
3 47.738 21.8702 -6.57009
6 47.869 22.2492 -6.27109
2 27.0807 36.21 4.5097
3 27.2597 36.603 4.2567
1 27.4387 36.996 4.0037
1 27.6177 37.389 3.7507
3 27.7967 37.782 3.4977
1 27.9757 38.175 3.2447
1 28.1547 38.568 2.9917
3 28.3337 38.961 2.7387
1 28.5127 39.354 2.4857
1 28.6917 39.747 2.2327
3 28.8707 40.14 1.9797
1 29.0497 40.533 1.7267
4 29.2287 40.926 1.4737
5 29.4077 41.319 1.2207
1 29.5867 41.712 0.967697
1 29.7657 42.105 0.714697
3 29.9447 42.498 0.461697
1 30.1237 42.891 0.208697
1 30.3027 43.284 -0.0443033
3 30.4817 43.677 -0.297303
1 30.6607 44.07 -0.550303
1 30.8397 44.463 -0.803303
3 31.0187 44.856 -1.0563
1 31.1977 45.249 -1.3093
1 31.3767 45.642 -1.5623
3 31.5557 46.035 -1.8153
1 31.7347 46.428 -2.0683
1 31.9137 46.821 -2.3213