20
Atoms. Timestep: 0
1 0 0 0
1 5 0 0
1 3 0 0
1 8 0 0
1 2 0 0
1 5 5 0
1 3 5 0
1 8 5 0
1 -2 0 0
1 5 2 0
1 3 2 0
1 8 0 4
1 0 0 1
1 5 0 2
1 3 0 3
1 8 0 5
1 0 0 6
1 5 0 7
1 3 0 8
1 8 0 9
20
Atoms. Timestep: 100
1 0.019087 -0.039528 -0.179287
1 5.01689 -0.0277742 -0.0314631
1 3.01777 -0.0324757 -0.0905928
1 8.01557 -0.0207219 0.0572315
1 2.01821 -0.0348265 -0.120158
1 5.00429 4.97213 -0.00309118
1 3.00517 4.96743 -0.0622209
1 8.00297 4.97918 0.0856034
1 -1.98003 -0.0442295 -0.238417
1 5.01185 1.97219 -0.0201143
1 2.90845 2.04078 0.0889157
1 7.98128 0.0528827 4.00232
1 -0.0640303 0.0188194 1.12624
1 4.95075 0.0439119 2.0489
1 2.9665 0.0277902 3.07965
1 7.99675 0.0485364 5.00219
1 0.013308 -0.00291183 6.12559
1 5.02809 0.0221807 7.04825
1 3.04383 0.00605891 8.07901
1 8.05862 0.0311514 9.00167
20
Atoms. Timestep: 200
1 0.0213516 -0.06432 -0.3711
1 5.01308 -0.0457648 -0.0842518
1 3.01639 -0.0531869 -0.198991
1 8.00812 -0.0346316 0.0878573
1 2.01804 -0.0568979 -0.256361
1 4.98941 4.95339 0.00430553
1 2.99272 4.94597 -0.110434
1 7.98445 4.96453 0.176415
1 -1.97534 -0.0717421 -0.48584
1 5.00361 1.9539 -0.0488288
1 2.79799 2.08932 0.175108
1 7.95218 0.117264 3.98894
1 -0.138966 0.0329977 1.24555
1 4.88997 0.0959917 2.08568
1 2.92325 0.0542697 3.14881
1 7.98422 0.105461 4.98835
1 0.0212125 -0.0260182 6.24263
1 5.05015 0.0369759 7.08276
1 3.08343 -0.00474619 8.14589
1 8.11236 0.0582478 8.98602
20
Atoms. Timestep: 300
1 0.0258304 -0.0714726 -0.527407
1 5.00985 -0.0578656 -0.128151
1 3.01624 -0.0633084 -0.287853
1 8.00026 -0.0497014 0.111402
1 2.01944 -0.0660298 -0.367705
1 4.98386 4.93969 0.0259555
1 2.99025 4.93425 -0.133747
1 7.97427 4.94786 0.265509
1 -1.96778 -0.0769154 -0.687109
1 4.99945 1.94116 -0.0665085
1 2.6871 2.11591 0.235987
1 7.91142 0.126553 3.94394
1 -0.227697 0.0491253 1.34611
1 4.81547 0.113305 2.09599
1 2.86826 0.062373 3.19406
1 7.96146 0.10851 4.94252
1 0.0224825 -0.0410904 6.33903
1 5.06565 0.0230898 7.08891
1 3.11843 -0.0278427 8.18698
1 8.1616 0.0363375 8.93686
20
Atoms. Timestep: 400
1 0.0385391 -0.10153 -0.669846
1 5.01468 -0.0743045 -0.182781
1 3.02423 -0.0851948 -0.377607
1 8.00037 -0.057969 0.109458
1 2.029 -0.0906399 -0.47502
1 4.96691 4.9211 0.0261063
1 2.97645 4.91021 -0.16872
1 7.9526 4.93744 0.318345
1 -1.95192 -0.112421 -0.864671
1 4.99557 1.92386 -0.0992259
1 2.59187 2.14154 0.273966
1 7.87367 0.141293 3.89359
1 -0.300808 0.0575302 1.40945
1 4.75216 0.131964 2.08911
1 2.8207 0.0668585 3.21392
1 7.93776 0.116055 4.89121
1 0.0196282 -0.0686564 6.39758
1 5.0726 0.00577779 7.07724
1 3.14113 -0.0593282 8.20205
1 8.1941 0.0151061 8.88171
20
Atoms. Timestep: 500
1 0.052628 -0.145082 -0.787557
1 5.02323 -0.0845286 -0.249588
1 3.03499 -0.10875 -0.464775
1 8.0056 -0.0481966 0.0731939
1 2.04087 -0.120861 -0.572369
1 4.93701 4.90922 -0.0149746
1 2.94876 4.885 -0.230162
1 7.91937 4.94555 0.307807
1 -1.93561 -0.169303 -1.00274
1 4.98874 1.91297 -0.155742
1 2.49105 2.21717 0.316772
1 7.82708 0.180965 3.83538
1 -0.377996 0.101755 1.45412
1 4.68287 0.18753 2.07076
1 2.76621 0.0951898 3.21875
1 7.904 0.139515 4.83156
1 0.006602 -0.105496 6.435
1 5.06747 -0.019721 7.05163
1 3.15081 -0.112061 8.19963
1 8.21168 -0.0262863 8.81626
20
Atoms. Timestep: 600
1 0.0831166 -0.157872 -0.910208
1 5.0476 -0.0713925 -0.321607
1 3.06181 -0.105984 -0.557047
1 8.02629 -0.0195049 0.0315536
1 2.06891 -0.12328 -0.674767
1 4.92766 4.91941 -0.0432857
1 2.94187 4.88482 -0.278726
1 7.90635 4.9713 0.309875
1 -1.90268 -0.192463 -1.14565
1 4.99962 1.92493 -0.210278
1 2.39437 2.28618 0.382038
1 7.78167 0.210356 3.79787
1 -0.452169 0.13972 1.51777
1 4.61565 0.235071 2.07285
1 2.71385 0.115005 3.24279
1 7.8712 0.151837 4.79214
1 -0.00455656 -0.152872 6.4891
1 5.06326 -0.0575208 7.04418
1 3.16147 -0.177587 8.21411
1 8.22929 -0.0822358 8.76919
20
Atoms. Timestep: 700
1 0.103305 -0.183911 -0.987324
1 5.06092 -0.0629843 -0.349057
1 3.07788 -0.111355 -0.604364
1 8.0355 0.0095716 0.0339033
1 2.08635 -0.13554 -0.732017
1 4.90324 4.92671 -0.0696201
1 2.92019 4.87834 -0.324927
1 7.87781 4.99927 0.31334
1 -1.87974 -0.232282 -1.24263
1 4.99785 1.93289 -0.237282
1 2.29729 2.31565 0.444918
1 7.73629 0.214506 3.76191
1 -0.528148 0.149136 1.59518
1 4.54663 0.250952 2.08121
1 2.66151 0.112691 3.27587
1 7.83972 0.144839 4.7541
1 -0.0110325 -0.199202 6.55615
1 5.06375 -0.0973864 7.04219
1 3.17863 -0.235647 8.23684
1 8.25341 -0.133832 8.72288
20
Atoms. Timestep: 800
1 0.125141 -0.204212 -1.06036
1 5.07799 -0.0527411 -0.39224
1 3.09685 -0.113329 -0.659487
1 8.04969 0.0381411 0.00862989
1 2.10628 -0.143623 -0.79311
1 4.88617 4.93509 -0.101084
1 2.90503 4.8745 -0.36833
1 7.85788 5.02597 0.299786
1 -1.856 -0.2648 -1.3276
1 5.00126 1.94239 -0.275777
1 2.20581 2.35401 0.487887
1 7.6822 0.216529 3.71904
1 -0.608777 0.182611 1.65541
1 4.47185 0.272127 2.07874
1 2.60157 0.127013 3.29571
1 7.79789 0.138453 4.70925
1 -0.0303033 -0.207773 6.60647
1 5.05032 -0.118256 7.0298
1 3.18005 -0.26337 8.24677
1 8.26067 -0.173854 8.6701
20
Atoms. Timestep: 900
1 0.129162 -0.226525 -1.15198
1 5.07376 -0.0423488 -0.432934
1 3.09592 -0.116019 -0.720553
1 8.04052 0.0681572 -0.00150463
1 2.107 -0.152855 -0.864363
1 4.8478 4.94489 -0.156567
1 2.86997 4.87122 -0.444187
1 7.81456 5.0554 0.274862
1 -1.84868 -0.300196 -1.4396
1 4.98338 1.95255 -0.322387
1 2.14714 2.38997 0.540684
1 7.64662 0.209413 3.70309
1 -0.663904 0.220018 1.7194
1 4.42085 0.288433 2.09432
1 2.56187 0.140998 3.32818
1 7.77156 0.12365 4.69154
1 -0.0392079 -0.2088 6.66166
1 5.04555 -0.140385 7.03657
1 3.18656 -0.28782 8.27044
1 8.27132 -0.219404 8.64535
20
Atoms. Timestep: 1000
1 0.131349 -0.250274 -1.24894
1 5.06428 -0.0289585 -0.46329
1 3.09111 -0.117485 -0.777549
1 8.02403 0.103831 0.00809865
1 2.10452 -0.161748 -0.934679
1 4.8009 4.95789 -0.214413
1 2.82773 4.86937 -0.528673
1 7.76066 5.09068 0.256975
1 -1.84182 -0.338801 -1.5632
1 4.95893 1.96578 -0.363739
1 2.07845 2.40123 0.573073
1 7.601 0.179144 3.66562
1 -0.730478 0.24007 1.77279
1 4.35834 0.281449 2.0925
1 2.51218 0.137766 3.34591
1 7.73626 0.0883355 4.65226
1 -0.0541686 -0.213972 6.70599
1 5.03465 -0.172593 7.0257
1 3.18849 -0.316276 8.27911
1 8.27731 -0.274898 8.59882
20
Atoms. Timestep: 1100
1 0.159998 -0.276226 -1.32285
1 5.07741 -0.013004 -0.456969
1 3.11045 -0.118293 -0.803322
1 8.02786 0.144929 0.062561
1 2.12696 -0.170937 -0.976499
1 4.77635 4.97416 -0.263286
1 2.80939 4.86888 -0.60964
1 7.7268 5.1321 0.256244
1 -1.80697 -0.381515 -1.66921
1 4.95699 1.98186 -0.379496
1 2.00469 2.41342 0.589086
1 7.54846 0.166702 3.62534
1 -0.798862 0.254203 1.80476
1 4.29261 0.282554 2.08068
1 2.45699 0.13835 3.34943
1 7.69202 0.0717994 4.61042
1 -0.0811 -0.220309 6.73017
1 5.01037 -0.191958 7.00609
1 3.17476 -0.336162 8.27484
1 8.26623 -0.30781 8.55075
20
Atoms. Timestep: 1200
1 0.195126 -0.308626 -1.36432
1 5.09898 -0.000515601 -0.438411
1 3.13744 -0.12376 -0.808773
1 8.04129 0.184351 0.117131
1 2.15667 -0.185382 -0.993954
1 4.76365 4.98687 -0.322046
1 2.80211 4.86363 -0.692408
1 7.70596 5.17174 0.233496
1 -1.76641 -0.431871 -1.73468
1 4.96485 1.99444 -0.391865
1 1.9349 2.43897 0.620116
1 7.50593 0.186474 3.60171
1 -0.854571 0.265198 1.84222
1 4.23868 0.304228 2.08143
1 2.41268 0.147444 3.36249
1 7.65686 0.0856368 4.5851
1 -0.099952 -0.238988 6.75916
1 4.9933 -0.199958 6.99838
1 3.16729 -0.356742 8.27944
1 8.26055 -0.317712 8.51865
20
Atoms. Timestep: 1300
1 0.214717 -0.327412 -1.38533
1 5.11182 0.020272 -0.437941
1 3.15298 -0.118802 -0.816895
1 8.05008 0.228883 0.130489
1 2.17356 -0.188339 -1.00637
1 4.74576 5.00647 -0.375674
1 2.78692 4.86739 -0.754627
1 7.68402 5.21508 0.192756
1 -1.74412 -0.466486 -1.76428
1 4.96539 2.01475 -0.413034
1 1.86902 2.48029 0.647651
1 7.4702 0.226563 3.57126
1 -0.902795 0.284941 1.87138
1 4.19182 0.34321 2.07505
1 2.37558 0.168295 3.36759
1 7.62848 0.118272 4.5527
1 -0.111354 -0.256513 6.77856
1 4.98326 -0.198245 6.98223
1 3.16702 -0.37316 8.27477
1 8.26164 -0.314891 8.47845
20
Atoms. Timestep: 1400
1 0.233325 -0.357156 -1.42176
1 5.12976 0.00808573 -0.477562
1 3.17119 -0.138011 -0.85524
1 8.06762 0.227231 0.0889558
1 2.1919 -0.211059 -1.04408
1 4.74419 4.99269 -0.40626
1 2.78562 4.84659 -0.783938
1 7.68206 5.21183 0.160258
1 -1.72525 -0.503253 -1.79944
1 4.97553 2.00193 -0.449041
1 1.82837 2.51547 0.67705
1 7.44031 0.211901 3.54055
1 -0.946974 0.333235 1.91614
1 4.14954 0.356821 2.07433
1 2.3438 0.188316 3.38235
1 7.60665 0.0982789 4.52005
1 -0.1153 -0.234875 6.81364
1 4.98121 -0.21129 6.97184
1 3.17547 -0.379795 8.27986
1 8.27198 -0.35621 8.43806
20
Atoms. Timestep: 1500
1 0.242617 -0.385315 -1.47782
1 5.13846 -0.000886706 -0.538183
1 3.18012 -0.154658 -0.914039
1 8.07597 0.22977 0.025601
1 2.20095 -0.231544 -1.10197
1 4.72089 4.97973 -0.400176
1 2.76255 4.82596 -0.776032
1 7.65839 5.21039 0.163609
1 -1.71572 -0.539086 -1.85368
1 4.97143 1.99136 -0.48298
1 1.80069 2.56192 0.70902
1 7.41446 0.20559 3.52563
1 -0.977592 0.373338 1.9302
1 4.11945 0.378923 2.07205
1 2.31741 0.200005 3.38378
1 7.58358 0.0793873 4.50311
1 -0.131953 -0.257677 6.8176
1 4.96509 -0.252091 6.95945
1 3.16305 -0.43101 8.27118
1 8.2601 -0.425425 8.41303
20
Atoms. Timestep: 1600
1 0.22828 -0.402141 -1.57046
1 5.12324 -0.00399805 -0.631922
1 3.16526 -0.163255 -1.00734
1 8.06022 0.234888 -0.0687985
1 2.18626 -0.242884 -1.19505
1 4.67041 4.96907 -0.379822
1 2.71242 4.80981 -0.755238
1 7.60738 5.20795 0.183301
1 -1.7297 -0.561398 -1.94588
1 4.94211 1.98523 -0.531082
1 1.78241 2.61707 0.7464
1 7.38942 0.213672 3.53658
1 -0.998544 0.407431 1.92274
1 4.09812 0.411387 2.07774
1 2.29276 0.209717 3.38158
1 7.55607 0.0707524 4.51218
1 -0.165304 -0.307169 6.80076
1 4.93136 -0.303213 6.95575
1 3.126 -0.504883 8.2596
1 8.22266 -0.500927 8.4146
20
Atoms. Timestep: 1700
1 0.198999 -0.404984 -1.66793
1 5.08853 -0.00649703 -0.70165
1 3.13272 -0.165892 -1.08816
1 8.02225 0.232595 -0.121884
1 2.15481 -0.245589 -1.28142
1 4.61202 4.9574 -0.33749
1 2.6562 4.79801 -0.724
1 7.54574 5.1965 0.242276
1 -1.75681 -0.564379 -2.05444
1 4.89792 1.97906 -0.555986
1 1.79639 2.68084 0.786749
1 7.3873 0.201345 3.54245
1 -0.995281 0.456791 1.90932
1 4.1009 0.440295 2.07873
1 2.29112 0.217841 3.37303
1 7.55065 0.0377358 4.51536
1 -0.178517 -0.361255 6.77385
1 4.91766 -0.377751 6.94327
1 3.10788 -0.600205 8.23757
1 8.20406 -0.616701 8.40699
20
Atoms. Timestep: 1800
1 0.161197 -0.410648 -1.76449
1 5.04466 -0.0164377 -0.766316
1 3.09128 -0.174122 -1.16559
1 7.97474 0.220088 -0.167412
1 2.11458 -0.252964 -1.36522
1 4.55107 4.938 -0.308108
1 2.59768 4.78031 -0.707377
1 7.48115 5.17452 0.290796
1 -1.79219 -0.568332 -2.16376
1 4.84723 1.96534 -0.583033
1 1.83149 2.75742 0.851198
1 7.40484 0.184539 3.55637
1 -0.972046 0.516034 1.90779
1 4.12353 0.474734 2.0905
1 2.30927 0.225838 3.37366
1 7.56482 -0.00504431 4.52512
1 -0.172166 -0.431881 6.75151
1 4.92341 -0.47318 6.93423
1 3.10915 -0.722077 8.21738
1 8.20472 -0.763376 8.4001
20
Atoms. Timestep: 1900
1 0.143448 -0.417175 -1.83922
1 5.01966 -0.0213899 -0.80679
1 3.06917 -0.179704 -1.21976
1 7.94539 0.216081 -0.18733
1 2.09393 -0.258861 -1.42625
1 4.50474 4.923 -0.270259
1 2.55426 4.76469 -0.683232
1 7.43047 5.16047 0.3492
1 -1.80704 -0.575489 -2.25219
1 4.81369 1.95637 -0.592177
1 1.90955 2.82897 0.919029
1 7.45206 0.157231 3.59155
1 -0.915687 0.589313 1.92001
1 4.17868 0.503358 2.1201
1 2.3577 0.243186 3.39145
1 7.6069 -0.053165 4.55683
1 -0.14153 -0.462665 6.74639
1 4.95284 -0.54862 6.94649
1 3.13185 -0.808792 8.21784
1 8.22622 -0.894747 8.41794
20
Atoms. Timestep: 2000
1 0.112361 -0.399618 -1.91944
1 4.97767 -0.019959 -0.831016
1 3.03154 -0.171823 -1.26638
1 7.89685 0.207836 -0.177962
1 2.05848 -0.247754 -1.48407
1 4.46425 4.92065 -0.259362
1 2.51812 4.76879 -0.694731
1 7.38343 5.14844 0.393691
1 -1.83376 -0.551481 -2.35481
1 4.7723 1.95628 -0.602354
1 2.0062 2.8998 0.983225
1 7.50201 0.115273 3.63699
1 -0.854191 0.690279 1.95078
1 4.23784 0.526965 2.16198
1 2.40998 0.278587 3.4258
1 7.65126 -0.108801 4.60007
1 -0.107913 -0.430091 6.76616
1 4.98411 -0.593405 6.97735
1 3.15626 -0.841783 8.24118
1 8.24829 -1.0051 8.45237
20
Atoms. Timestep: 2100
1 0.0726778 -0.359438 -1.98883
1 4.93186 0.00176031 -0.867261
1 2.98818 -0.142719 -1.31589
1 7.84736 0.218479 -0.194318
1 2.01635 -0.214958 -1.5402
1 4.42172 4.93677 -0.246406
1 2.47805 4.79229 -0.695035
1 7.33723 5.15349 0.426538
1 -1.87099 -0.503917 -2.43746
1 4.7278 1.97576 -0.618919
1 2.11196 2.97428 1.04667
1 7.54234 0.03862 3.67211
1 -0.796684 0.814062 1.98113
1 4.29031 0.539151 2.19774
1 2.45534 0.313531 3.45551
1 7.68507 -0.201083 4.63241
1 -0.0830034 -0.384454 6.78261
1 5.00399 -0.659365 6.99922
1 3.16902 -0.884985 8.25699
1 8.25602 -1.1599 8.47359
20
Atoms. Timestep: 2200
1 0.0241699 -0.311616 -2.00339
1 4.87857 0.033111 -0.856216
1 2.93681 -0.10478 -1.31508
1 7.7912 0.239947 -0.167912
1 1.96593 -0.173725 -1.54452
1 4.38148 4.96955 -0.236153
1 2.43972 4.83166 -0.695022
1 7.29412 5.17639 0.452151
1 -1.91759 -0.449507 -2.46226
1 4.67973 2.00769 -0.608191
1 2.21159 3.04632 1.12339
1 7.5708 -0.0529973 3.7066
1 -0.747717 0.94422 2.03096
1 4.33129 0.544717 2.2409
1 2.4918 0.346505 3.49667
1 7.70802 -0.308721 4.66356
1 -0.0616167 -0.334398 6.81577
1 5.01739 -0.733901 7.0257
1 3.1779 -0.932113 8.28148
1 8.2569 -1.33162 8.49141
20
Atoms. Timestep: 2300
1 -0.0300189 -0.277895 -1.96916
1 4.8242 0.045447 -0.81502
1 2.88251 -0.08389 -1.27668
1 7.73672 0.239452 -0.122533
1 1.91167 -0.148558 -1.50751
1 4.35907 4.99094 -0.24425
1 2.41738 4.8616 -0.705908
1 7.2716 5.18494 0.448237
1 -1.9717 -0.407232 -2.43082
1 4.63814 2.02364 -0.586712
1 2.32234 3.13282 1.21194
1 7.59572 -0.145006 3.75109
1 -0.691687 1.09375 2.08247
1 4.37497 0.559672 2.29157
1 2.52907 0.389073 3.54198
1 7.72484 -0.419456 4.70398
1 -0.0461252 -0.2785 6.84694
1 5.02053 -0.812579 7.05604
1 3.17463 -0.983177 8.30645
1 8.24129 -1.51726 8.51556
20
Atoms. Timestep: 2400
1 -0.056089 -0.275106 -1.93755
1 4.79407 0.060855 -0.770053
1 2.85401 -0.0735294 -1.23705
1 7.70417 0.262432 -0.0695564
1 1.88398 -0.140722 -1.47055
1 4.32852 5.01304 -0.26102
1 2.38845 4.87866 -0.728018
1 7.23861 5.21462 0.439476
1 -1.99615 -0.40949 -2.40454
1 4.60785 2.04173 -0.56644
1 2.44748 3.23349 1.2947
1 7.61158 -0.241912 3.79542
1 -0.63048 1.27937 2.13587
1 4.41654 0.583006 2.34242
1 2.56456 0.454455 3.58887
1 7.73074 -0.532695 4.74476
1 -0.0346611 -0.174547 6.88257
1 5.01236 -0.870913 7.08912
1 3.16038 -0.999464 8.33557
1 8.2074 -1.69583 8.54212
20
Atoms. Timestep: 2500
1 -0.0504752 -0.27382 -1.93263
1 4.79254 0.0903237 -0.744096
1 2.85533 -0.0553337 -1.21951
1 7.69835 0.30881 -0.0309744
1 1.88673 -0.128162 -1.45722
1 4.29689 5.04019 -0.24098
1 2.35968 4.89454 -0.716394
1 7.2027 5.25868 0.472143
1 -1.98768 -0.419477 -2.40805
1 4.59428 2.07027 -0.54285
1 2.58422 3.34927 1.3965
1 7.64362 -0.317289 3.83757
1 -0.549138 1.46697 2.19588
1 4.47588 0.624865 2.39613
1 2.61861 0.524813 3.63732
1 7.75272 -0.629355 4.78134
1 -0.00364796 -0.0933643 6.91476
1 5.02137 -0.935466 7.11501
1 3.1641 -1.03552 8.35619
1 8.18911 -1.87762 8.55644
20
Atoms. Timestep: 2600
1 -0.0199044 -0.257118 -1.95026
1 4.81392 0.137478 -0.73436
1 2.88039 -0.0203602 -1.22072
1 7.71422 0.374236 -0.00482086
1 1.91363 -0.0992794 -1.4639
1 4.2766 5.07996 -0.202224
1 2.34307 4.92212 -0.688583
1 7.1769 5.31672 0.527315
1 -1.95344 -0.414956 -2.43662
1 4.599 2.11447 -0.521505
1 2.71701 3.4667 1.51102
1 7.67417 -0.3811 3.88187
1 -0.465646 1.64798 2.26132
1 4.53564 0.673388 2.45439
1 2.67288 0.593492 3.68879
1 7.77257 -0.716624 4.81874
1 0.0263428 -0.0296385 6.94571
1 5.02763 -1.00423 7.13879
1 3.16487 -1.08413 8.37319
1 8.16616 -2.05872 8.56626
20
Atoms. Timestep: 2700
1 -0.0154517 -0.258239 -1.95616
1 4.81115 0.180258 -0.726669
1 2.88051 0.0048588 -1.21847
1 7.70711 0.443356 0.0110286
1 1.91519 -0.0828406 -1.46437
1 4.22314 5.1152 -0.178384
1 2.2925 4.9398 -0.670182
1 7.1191 5.3783 0.559313
1 -1.94609 -0.433638 -2.44796
1 4.57595 2.15423 -0.507355
1 2.833 3.5958 1.64639
1 7.70315 -0.414225 3.92702
1 -0.38919 1.82994 2.35295
1 4.58946 0.741953 2.5241
1 2.7245 0.673761 3.75587
1 7.79351 -0.773787 4.85575
1 0.0625882 0.0321308 6.99663
1 5.04124 -1.05586 7.16778
1 3.17628 -1.12405 8.39955
1 8.15493 -2.21203 8.5707
20
Atoms. Timestep: 2800
1 -0.0278811 -0.279463 -1.95506
1 4.78921 0.226066 -0.714071
1 2.86237 0.0238545 -1.21047
1 7.67947 0.529383 0.0305222
1 1.89896 -0.0772513 -1.45866
1 4.12562 5.14889 -0.143612
1 2.19879 4.94668 -0.640008
1 7.01588 5.45221 0.600981
1 -1.95472 -0.481674 -2.45146
1 4.52378 2.1952 -0.485887
1 2.92911 3.70081 1.75872
1 7.7204 -0.443209 3.96567
1 -0.326895 1.98659 2.43689
1 4.62947 0.798162 2.58539
1 2.76403 0.745223 3.81718
1 7.80404 -0.820575 4.88795
1 0.0913292 0.0997662 7.04829
1 5.0477 -1.08867 7.19678
1 3.18225 -1.1416 8.42858
1 8.13862 -2.33004 8.57707
20
Atoms. Timestep: 2900
1 -0.0424491 -0.297897 -1.98695
1 4.74837 0.269233 -0.673031
1 2.83205 0.042381 -1.1986
1 7.62287 0.609511 0.115319
1 1.87388 -0.0710451 -1.46138
1 4.00873 5.18044 -0.0959705
1 2.0924 4.95359 -0.621537
1 6.88323 5.52072 0.692379
1 -1.95878 -0.524749 -2.51251
1 4.45252 2.23371 -0.442207
1 3.01833 3.74786 1.83057
1 7.71933 -0.520781 3.99376
1 -0.274249 2.10362 2.50539
1 4.65399 0.801075 2.63126
1 2.79109 0.781764 3.86789
1 7.79676 -0.90673 4.91302
1 0.112882 0.173875 7.10172
1 5.04112 -1.12867 7.22759
1 3.17822 -1.14798 8.46421
1 8.10646 -2.45053 8.59008
20
Atoms. Timestep: 3000
1 -0.048246 -0.328863 -2.0039
1 4.71701 0.295303 -0.624497
1 2.81091 0.0456366 -1.17626
1 7.57617 0.669803 0.203142
1 1.85786 -0.0791966 -1.45214
1 3.9135 5.19878 -0.0674736
1 2.0074 4.94911 -0.619233
1 6.77265 5.57328 0.760166
1 -1.95435 -0.57853 -2.55566
1 4.39561 2.25669 -0.401688
1 3.10286 3.78648 1.88031
1 7.69912 -0.605954 4.02064
1 -0.228919 2.22857 2.56746
1 4.66393 0.797083 2.67189
1 2.80627 0.825537 3.9162
1 7.77018 -0.994627 4.93927
1 0.12638 0.285209 7.16062
1 5.01922 -1.14628 7.26505
1 3.16157 -1.11783 8.50936
1 8.05441 -2.54932 8.61379
20
Atoms. Timestep: 3100
1 -0.0436407 -0.358026 -2.02788
1 4.69589 0.309553 -0.581802
1 2.80008 0.0425217 -1.16024
1 7.53961 0.7101 0.285847
1 1.85217 -0.090994 -1.44945
1 3.85355 5.21295 -0.0846448
1 1.95773 4.94592 -0.663078
1 6.69727 5.6135 0.783005
1 -1.93945 -0.625057 -2.60632
1 4.35895 2.27091 -0.382939
1 3.17374 3.83451 1.96006
1 7.67382 -0.681679 4.04652
1 -0.190925 2.36177 2.67423
1 4.66381 0.803418 2.72958
1 2.81908 0.876676 3.99117
1 7.74323 -1.0746 4.96347
1 0.156102 0.397189 7.25899
1 5.01084 -1.16117 7.31434
1 3.16611 -1.08791 8.57593
1 8.02085 -2.64626 8.63128
20
Atoms. Timestep: 3200
1 -0.0663058 -0.36097 -2.06271
1 4.65043 0.323663 -0.551538
1 2.76374 0.0498098 -1.15601
1 7.48048 0.734443 0.355166
1 1.82039 -0.0871169 -1.45824
1 3.79756 5.2308 -0.112684
1 1.91087 4.95695 -0.717153
1 6.62761 5.64158 0.79402
1 -1.953 -0.634824 -2.66718
1 4.30929 2.28652 -0.375996
1 3.22554 3.87589 2.02959
1 7.64795 -0.734437 4.07584
1 -0.162671 2.47809 2.78206
1 4.6572 0.814111 2.78844
1 2.82808 0.929544 4.06946
1 7.71854 -1.12741 4.99268
1 0.190299 0.513235 7.36625
1 5.01017 -1.15075 7.37263
1 3.18105 -1.03531 8.65365
1 8.00092 -2.69929 8.66003
20
Atoms. Timestep: 3300
1 -0.0977719 -0.345118 -2.11195
1 4.59909 0.337741 -0.539311
1 2.72035 0.0645975 -1.16836
1 7.41721 0.747456 0.404271
1 1.78097 -0.0719742 -1.48289
1 3.75868 5.25224 -0.163257
1 1.87993 4.9791 -0.792312
1 6.5768 5.66195 0.780324
1 -1.97652 -0.618261 -2.741
1 4.26293 2.30354 -0.388889
1 3.25856 3.907 2.09528
1 7.62995 -0.766489 4.10761
1 -0.142589 2.56723 2.89354
1 4.64948 0.825364 2.8495
1 2.83788 0.975379 4.15164
1 7.70511 -1.15701 5.02513
1 0.233201 0.614616 7.48114
1 5.02527 -1.12725 7.4371
1 3.21367 -0.977237 8.73924
1 8.00574 -2.7191 8.69521
20
Atoms. Timestep: 3400
1 -0.132293 -0.33062 -2.13976
1 4.55337 0.346882 -0.531785
1 2.6791 0.0758816 -1.17497
1 7.36476 0.753383 0.432997
1 1.74197 -0.0596188 -1.49657
1 3.72387 5.26553 -0.18703
1 1.84961 4.99453 -0.830218
1 6.53527 5.67203 0.777752
1 -2.00656 -0.60162 -2.78294
1 4.22157 2.31434 -0.393883
1 3.24894 3.94636 2.17534
1 7.5973 -0.769568 4.13793
1 -0.155284 2.64322 3.01979
1 4.61744 0.851467 2.91619
1 2.82458 1.02218 4.24153
1 7.68033 -1.15956 5.055
1 0.259824 0.693276 7.60513
1 5.03255 -1.09848 7.50154
1 3.23969 -0.927759 8.82687
1 8.01241 -2.71951 8.72328
20
Atoms. Timestep: 3500
1 -0.196331 -0.319173 -2.12413
1 4.49102 0.343094 -0.514732
1 2.61608 0.0781873 -1.15849
1 7.30343 0.740455 0.450907
1 1.67861 -0.0542662 -1.48037
1 3.68892 5.26864 -0.205481
1 1.81398 5.00373 -0.849241
1 6.50132 5.666 0.760158
1 -2.07127 -0.58408 -2.76789
1 4.17018 2.31331 -0.391032
1 3.25583 3.98453 2.21604
1 7.56785 -0.777362 4.14761
1 -0.154104 2.72815 3.10702
1 4.59412 0.875851 2.95436
1 2.81962 1.07494 4.30027
1 7.65698 -1.16438 5.06536
1 0.29156 0.793042 7.69578
1 5.03979 -1.05926 7.54312
1 3.26528 -0.86017 8.88903
1 8.01351 -2.71247 8.73637
20
Atoms. Timestep: 3600
1 -0.276641 -0.31191 -2.10858
1 4.4167 0.346361 -0.515095
1 2.53937 0.0830527 -1.15249
1 7.23271 0.741324 0.440993
1 1.6007 -0.0486015 -1.47118
1 3.62317 5.27376 -0.21338
1 1.74583 5.01045 -0.850772
1 6.43918 5.66872 0.742709
1 -2.15398 -0.575218 -2.74597
1 4.09929 2.31732 -0.394409
1 3.28554 4.02499 2.27198
1 7.55207 -0.787398 4.17925
1 -0.133545 2.81037 3.18554
1 4.59093 0.900839 3.00386
1 2.82759 1.12213 4.36093
1 7.64238 -1.17491 5.09668
1 0.318046 0.87279 7.77268
1 5.04252 -1.03674 7.591
1 3.27918 -0.815447 8.94807
1 8.00366 -2.72497 8.76639
20
Atoms. Timestep: 3700
1 -0.349673 -0.327453 -2.09023
1 4.35415 0.347708 -0.535164
1 2.47262 0.0776435 -1.15719
1 7.17644 0.752804 0.397874
1 1.53186 -0.0573886 -1.4682
1 3.55259 5.27478 -0.249747
1 1.67106 5.00472 -0.871772
1 6.37488 5.67988 0.683291
1 -2.2312 -0.597517 -2.71225
1 4.03352 2.31854 -0.420997
1 3.30821 4.07994 2.34825
1 7.55901 -0.755714 4.23165
1 -0.115768 2.86728 3.24592
1 4.60452 0.947695 3.06144
1 2.83872 1.16387 4.41613
1 7.64638 -1.14976 5.14658
1 0.321065 0.897077 7.82058
1 5.04136 -1.02251 7.63609
1 3.27555 -0.806333 8.99079
1 7.99584 -2.72592 8.8063
20
Atoms. Timestep: 3800
1 -0.414089 -0.380544 -2.04666
1 4.30905 0.336116 -0.570729
1 2.41979 0.0494524 -1.1611
1 7.14293 0.766113 0.314828
1 1.47517 -0.0938797 -1.45629
1 3.47012 5.25637 -0.275173
1 1.58087 4.9697 -0.865545
1 6.30401 5.68636 0.610384
1 -2.30334 -0.667208 -2.63703
1 3.97348 2.30422 -0.452507
1 3.32025 4.15495 2.41735
1 7.57237 -0.687208 4.28094
1 -0.106219 2.92319 3.27879
1 4.62097 1.0194 3.10761
1 2.84518 1.21658 4.45212
1 7.65458 -1.0903 5.1924
1 0.304825 0.907708 7.83608
1 5.03201 -0.996082 7.6649
1 3.25623 -0.798902 9.00941
1 7.98341 -2.70269 8.83823
20
Atoms. Timestep: 3900
1 -0.48441 -0.436934 -1.98492
1 4.25992 0.327218 -0.603823
1 2.36219 0.021557 -1.15626
1 7.10651 0.785709 0.224837
1 1.41332 -0.131273 -1.43248
1 3.37853 5.23915 -0.293829
1 1.4808 4.93349 -0.846269
1 6.22512 5.69764 0.534832
1 -2.38214 -0.742595 -2.53736
1 3.90736 2.29199 -0.479826
1 3.33775 4.26092 2.48972
1 7.58837 -0.598609 4.31104
1 -0.0924756 3.00399 3.2982
1 4.64237 1.11827 3.13913
1 2.85353 1.28711 4.47012
1 7.66344 -1.01679 5.2163
1 0.28287 0.913102 7.8245
1 5.01772 -0.972616 7.66542
1 3.22887 -0.803777 8.99641
1 7.96372 -2.6895 8.83733
20
Atoms. Timestep: 4000
1 -0.549415 -0.487097 -1.93515
1 4.21965 0.312177 -0.663461
1 2.31202 -0.00753287 -1.17214
1 7.08109 0.791741 0.0995515
1 1.35821 -0.167388 -1.42647
1 3.30731 5.21653 -0.324464
1 1.39968 4.89682 -0.833139
1 6.16874 5.6961 0.438549
1 -2.45704 -0.806807 -2.44382
1 3.85471 2.27392 -0.527862
1 3.32554 4.36695 2.57165
1 7.58072 -0.509262 4.33689
1 -0.105098 3.08804 3.34309
1 4.63573 1.21796 3.17769
1 2.83989 1.36082 4.50229
1 7.6525 -0.941526 5.23577
1 0.253816 0.926725 7.83752
1 4.99464 -0.943361 7.67212
1 3.19881 -0.800496 8.99672
1 7.93963 -2.67058 8.83131
20
Atoms. Timestep: 4100
1 -0.595167 -0.538638 -1.87114
1 4.19528 0.313721 -0.719999
1 2.2791 -0.0272227 -1.18045
1 7.06954 0.825137 -0.0293158
1 1.32101 -0.197695 -1.41068
1 3.23981 5.20898 -0.368525
1 1.32363 4.86803 -0.828981
1 6.11408 5.72039 0.322158
1 -2.51135 -0.879582 -2.33159
1 3.81309 2.27182 -0.57941
1 3.32099 4.46429 2.64739
1 7.57937 -0.426938 4.36265
1 -0.110669 3.16341 3.3764
1 4.63669 1.3099 3.21197
1 2.83201 1.42657 4.52707
1 7.6467 -0.873172 5.25503
1 0.225969 0.932241 7.8383
1 4.97333 -0.921272 7.67387
1 3.16865 -0.804594 8.98897
1 7.91601 -2.65811 8.82455
20
Atoms. Timestep: 4200
1 -0.637526 -0.587323 -1.83759
1 4.16783 0.327865 -0.802722
1 2.24569 -0.0382103 -1.21667
1 7.05105 0.876977 -0.181802
1 1.28462 -0.221248 -1.42364
1 3.15162 5.2068 -0.398666
1 1.22947 4.84073 -0.812613
1 6.03483 5.75592 0.222253
1 -2.55967 -0.953397 -2.25153
1 3.76135 2.27944 -0.6411
1 3.31608 4.56087 2.70993
1 7.57943 -0.346074 4.36698
1 -0.114195 3.24832 3.42438
1 4.63487 1.40133 3.23731
1 2.83036 1.50092 4.55406
1 7.64737 -0.802652 5.25407
1 0.225509 0.965432 7.85981
1 4.97457 -0.88156 7.67273
1 3.17007 -0.781972 8.98948
1 7.91913 -2.62896 8.80241
20
Atoms. Timestep: 4300
1 -0.691396 -0.612902 -1.80897
1 4.12434 0.361933 -0.882503
1 2.19805 -0.0280008 -1.25309
1 7.01379 0.946835 -0.326621
1 1.2349 -0.222968 -1.43839
1 3.04863 5.22136 -0.404139
1 1.12234 4.83142 -0.774727
1 5.93808 5.80626 0.151744
1 -2.61769 -1.00284 -2.17956
1 3.69406 2.3057 -0.691158
1 3.31538 4.6656 2.76161
1 7.56758 -0.27133 4.35708
1 -0.117089 3.35677 3.47235
1 4.62551 1.49673 3.25336
1 2.82498 1.58871 4.57608
1 7.63651 -0.737066 5.23932
1 0.227573 1.02809 7.88353
1 4.97018 -0.831955 7.66453
1 3.16964 -0.739969 8.98726
1 7.91224 -2.60001 8.76826
20
Atoms. Timestep: 4400
1 -0.757009 -0.627381 -1.7421
1 4.07733 0.380943 -0.959531
1 2.1436 -0.0223865 -1.27256
1 6.97794 0.985937 -0.489992
1 1.17673 -0.224051 -1.42907
1 2.97759 5.22751 -0.410549
1 1.04386 4.82418 -0.723575
1 5.8782 5.8325 0.0589911
1 -2.69075 -1.03071 -2.05512
1 3.63744 2.31957 -0.739938
1 3.31116 4.77183 2.82297
1 7.56189 -0.184551 4.361
1 -0.122342 3.45205 3.50798
1 4.62158 1.59712 3.27463
1 2.81797 1.67038 4.59434
1 7.62901 -0.6622 5.23698
1 0.213248 1.06381 7.88789
1 4.95717 -0.791126 7.65455
1 3.15356 -0.71786 8.97426
1 7.89748 -2.57279 8.74091
20
Atoms. Timestep: 4500
1 -0.83849 -0.629812 -1.65209
1 4.01559 0.39824 -1.03482
1 2.07396 -0.0129805 -1.28173
1 6.92804 1.01507 -0.664455
1 1.10314 -0.218591 -1.40518
1 2.91231 5.23548 -0.415196
1 0.970678 4.82425 -0.662104
1 5.82476 5.85231 -0.044833
1 -2.78012 -1.04103 -1.899
1 3.57428 2.33313 -0.786969
1 3.30973 4.8648 2.91728
1 7.58341 -0.0945681 4.38027
1 -0.119203 3.50892 3.55291
1 4.63826 1.69001 3.31193
1 2.82595 1.72434 4.62126
1 7.64818 -0.589734 5.24665
1 0.204628 1.0331 7.88482
1 4.96209 -0.785817 7.64383
1 3.14978 -0.751483 8.95316
1 7.90725 -2.5704 8.71217
20
Atoms. Timestep: 4600
1 -0.917942 -0.648465 -1.56104
1 3.94805 0.404695 -1.09952
1 2.00165 -0.0165689 -1.28413
1 6.86764 1.03659 -0.822619
1 1.02845 -0.227201 -1.37643
1 2.83956 5.23461 -0.433825
1 0.893162 4.81335 -0.618429
1 5.75915 5.86651 -0.156918
1 -2.86434 -1.06973 -1.74564
1 3.50465 2.33666 -0.833245
1 3.2927 4.96296 3.02171
1 7.62516 0.0323892 4.40706
1 -0.121811 3.54131 3.58741
1 4.66463 1.7993 3.35197
1 2.83873 1.7744 4.6425
1 7.68851 -0.483115 5.2616
1 0.194898 0.96379 7.86012
1 4.98133 -0.778221 7.62468
1 3.15544 -0.803123 8.91521
1 7.94187 -2.54513 8.67977
20
Atoms. Timestep: 4700
1 -1.00037 -0.671243 -1.49557
1 3.87507 0.392311 -1.1811
1 1.92489 -0.0331107 -1.30689
1 6.80034 1.03044 -0.992417
1 0.949806 -0.245822 -1.36979
1 2.77551 5.21282 -0.437018
1 0.82533 4.7874 -0.562808
1 5.70077 5.85095 -0.248334
1 -2.95055 -1.09667 -1.62136
1 3.43525 2.32051 -0.883468
1 3.30227 5.04619 3.11542
1 7.68156 0.138762 4.4341
1 -0.0999439 3.56875 3.60747
1 4.71079 1.89302 3.38668
1 2.87083 1.81449 4.65489
1 7.7418 -0.39611 5.27689
1 0.201235 0.894392 7.82139
1 5.01197 -0.781338 7.6006
1 3.17201 -0.859866 8.86881
1 7.98274 -2.5356 8.64802
20
Atoms. Timestep: 4800
1 -1.07341 -0.662273 -1.4671
1 3.80979 0.394965 -1.2756
1 1.85651 -0.0279298 -1.3522
1 6.7397 1.02931 -1.1607
1 0.87987 -0.239377 -1.3905
1 2.73538 5.20656 -0.442409
1 0.782098 4.78366 -0.519008
1 5.66529 5.8409 -0.32751
1 -3.02669 -1.08517 -1.5437
1 3.38002 2.3196 -0.942322
1 3.30873 5.12979 3.18373
1 7.72267 0.245401 4.47209
1 -0.0836367 3.60726 3.60058
1 4.74767 1.98726 3.416
1 2.89136 1.8654 4.65667
1 7.7771 -0.304501 5.30554
1 0.188545 0.857747 7.76785
1 5.01985 -0.76225 7.58327
1 3.16354 -0.884115 8.82393
1 7.99485 -2.50411 8.63935
20
Atoms. Timestep: 4900
1 -1.11485 -0.643537 -1.4645
1 3.7725 0.408603 -1.38206
1 1.81756 -0.012253 -1.41503
1 6.70491 1.03989 -1.33259
1 0.840086 -0.222681 -1.43152
1 2.72421 5.2032 -0.426604
1 0.769268 4.78235 -0.459579
1 5.65662 5.83449 -0.377141
1 -3.0698 -1.06439 -1.49747
1 3.35318 2.32644 -0.999876
1 3.33383 5.2158 3.23672
1 7.77802 0.356535 4.51609
1 -0.0485829 3.65355 3.58121
1 4.80107 2.08455 3.4429
1 2.92837 1.92554 4.6544
1 7.82599 -0.205332 5.34193
1 0.191275 0.844219 7.71039
1 5.04092 -0.724783 7.57208
1 3.16823 -0.883796 8.78357
1 8.01787 -2.4528 8.64527
20
Atoms. Timestep: 5000
1 -1.13764 -0.604071 -1.49166
1 3.75035 0.448179 -1.51
1 1.79516 0.027279 -1.50267
1 6.68315 1.07953 -1.52101
1 0.81756 -0.183171 -1.499
1 2.72904 5.21206 -0.386443
1 0.773842 4.79116 -0.379106
1 5.66183 5.84341 -0.397447
1 -3.09283 -1.02497 -1.48433
1 3.34183 2.35373 -1.06058
1 3.3293 5.30148 3.32149
1 7.81993 0.468094 4.53501
1 -0.0369048 3.69095 3.59512
1 4.83285 2.18428 3.47101
1 2.95017 1.97477 4.65912
1 7.86651 -0.112031 5.3482
1 0.196032 0.790326 7.66109
1 5.06579 -0.716351 7.53697
1 3.18311 -0.925856 8.72509
1 8.05286 -2.43253 8.60098
20
Atoms. Timestep: 5100
1 -1.14918 -0.575392 -1.51736
1 3.73533 0.486881 -1.63195
1 1.78152 0.0619716 -1.58611
1 6.66603 1.12424 -1.70071
1 0.804621 -0.150483 -1.5632
1 2.73546 5.22057 -0.370038
1 0.781655 4.79566 -0.324201
1 5.66617 5.85794 -0.438794
1 -3.10299 -1.0003 -1.47152
1 3.33538 2.38036 -1.12719
1 3.35617 5.39547 3.40775
1 7.87039 0.564591 4.54106
1 -0.000442821 3.75393 3.604
1 4.88153 2.2864 3.49127
1 2.98842 2.03212 4.6538
1 7.91302 -0.0363345 5.33923
1 0.212696 0.749299 7.59484
1 5.09467 -0.718226 7.4821
1 3.20156 -0.972512 8.64463